
  ___ ___ ___ _ _ _  
 |   |   |_  | | | | 
 | | | | | . | | | | 
 |__ |  _|___|_____|  24.1.0
 |___|_|             

User:   ranjan@ranjan-legion-5
Date:   Wed May 15 05:29:11 2024
Arch:   x86_64
Pid:    74457
CWD:    /home/ranjan/src/litesoph_iiserb
Python: 3.10.12
gpaw:   /home/ranjan/.local/lib/python3.10/site-packages/gpaw
_gpaw:  /home/ranjan/.local/lib/python3.10/site-packages/
        _gpaw.cpython-310-x86_64-linux-gnu.so
ase:    /home/ranjan/.local/lib/python3.10/site-packages/ase (version 3.22.1)
numpy:  /home/ranjan/.local/lib/python3.10/site-packages/numpy (version 1.22.4)
scipy:  /home/ranjan/.local/lib/python3.10/site-packages/scipy (version 1.11.4)
libxc:  5.1.7
units:  Angstrom and eV
cores: 1
OpenMP: False
OMP_NUM_THREADS: 1

Reading from /home/ranjan/gpaw/nceiun/workflow_1/gpaw/TaskTypes.GROUND_STATE/gs.gpw
Read dipole, energy, free_energy, magmom, magmoms
Reading input parameters:
  basis: {default: dzp}
  convergence: {bands: occupied,
                density: 1e-05,
                eigenstates: 4e-08,
                energy: 1e-06}
  h: 0.3
  maxiter: 500
  mode: lcao
  occupations: {name: ,
                width: 0.0}
  spinpol: False
  symmetry: {do_not_symmetrize_the_density: None,
             point_group: False,
             symmorphic: True,
             time_reversal: True,
             tolerance: 1e-07}
  xc: PBE

Initialize ...

species:
  C:
    name: Carbon
    id: 4aa54d4b901d75f77cc0ea3eec22967b
    Z: 6.0
    valence: 4
    core: 2
    charge: 0.0
    file: /home/ranjan/Downloads/gpaw-setups-0.9.20000/C.PBE.gz
    compensation charges: {type: gauss,
                           rc: 0.20,
                           lmax: 2}
    cutoffs: {filter: 1.14,
              core: 1.14}
    valence states:
      #              energy  rcut
      - 2s(2.00)   -13.751   0.635
      - 2p(2.00)    -5.284   0.635
      -  s          13.461   0.635
      -  p          21.927   0.635
      -  d           0.000   0.635
  
    # LCAO basis set for C:
    #   Name: dzp
    #   File: /home/ranjan/Downloads/gpaw-setups-0.9.20000/C.dzp.basis.gz
    #   Number of radial functions: 5
    #   Number of spherical harmonics: 13
    #     l=0, rc=5.5469 Bohr: 2s-sz confined orbital
    #     l=1, rc=6.6719 Bohr: 2p-sz confined orbital
    #     l=0, rc=3.0312 Bohr: 2s-dz split-valence wave
    #     l=1, rc=3.7500 Bohr: 2p-dz split-valence wave
    #     l=2, rc=6.6719 Bohr: d-type Gaussian polarization
    #   Number of RI-basis functions 0

  O:
    name: Oxygen
    id: 32ecd46bf208036f09c70b0ec9a88b78
    Z: 8.0
    valence: 6
    core: 2
    charge: 0.0
    file: /home/ranjan/Downloads/gpaw-setups-0.9.20000/O.PBE.gz
    compensation charges: {type: gauss,
                           rc: 0.21,
                           lmax: 2}
    cutoffs: {filter: 1.17,
              core: 0.83}
    valence states:
      #              energy  rcut
      - 2s(2.00)   -23.961   0.688
      - 2p(4.00)    -9.029   0.598
      -  s           3.251   0.688
      -  p          18.182   0.598
      -  d           0.000   0.619
  
    # LCAO basis set for O:
    #   Name: dzp
    #   File: /home/ranjan/Downloads/gpaw-setups-0.9.20000/O.dzp.basis.gz
    #   Number of radial functions: 5
    #   Number of spherical harmonics: 13
    #     l=0, rc=4.3438 Bohr: 2s-sz confined orbital
    #     l=1, rc=5.3906 Bohr: 2p-sz confined orbital
    #     l=0, rc=2.2969 Bohr: 2s-dz split-valence wave
    #     l=1, rc=2.8906 Bohr: 2p-dz split-valence wave
    #     l=2, rc=5.3906 Bohr: d-type Gaussian polarization
    #   Number of RI-basis functions 0

  H:
    name: Hydrogen
    id: d65de229564ff8ea4db303e23b6d1ecf
    Z: 1.0
    valence: 1
    core: 0
    charge: 0.0
    file: /home/ranjan/Downloads/gpaw-setups-0.9.20000/H.PBE.gz
    compensation charges: {type: gauss,
                           rc: 0.15,
                           lmax: 2}
    cutoffs: {filter: 0.85,
              core: 0.53}
    valence states:
      #              energy  rcut
      - 1s(1.00)    -6.494   0.476
      -  s          20.717   0.476
      -  p           0.000   0.476
  
    # LCAO basis set for H:
    #   Name: dzp
    #   File: /home/ranjan/Downloads/gpaw-setups-0.9.20000/H.dzp.basis.gz
    #   Number of radial functions: 3
    #   Number of spherical harmonics: 5
    #     l=0, rc=6.4219 Bohr: 1s-sz confined orbital
    #     l=0, rc=3.6094 Bohr: 1s-dz split-valence wave
    #     l=1, rc=6.4219 Bohr: p-type Gaussian polarization
    #   Number of RI-basis functions 0

Reference energy: -13405.298615  # eV

Spin-paired calculation

Convergence criteria:
 Maximum [total energy] change in last 3 cyles: 1e-06 eV / valence electron
 Maximum integral of absolute [dens]ity change: 1e-05 electrons / valence electron
 Maximum integral of absolute [eigenst]ate change: 4e-08 eV^2 / valence electron
 Maximum number of scf [iter]ations: 500
 (Square brackets indicate name in SCF output, whereas a 'c' in
 the SCF output indicates the quantity has converged.)

Symmetries present (total): 1

  ( 1  0  0)
  ( 0  1  0)
  ( 0  0  1)

1 k-point (Gamma)
1 k-point in the irreducible part of the Brillouin zone
       k-points in crystal coordinates                weights
   0:     0.00000000    0.00000000    0.00000000          1/1

Wave functions: LCAO
  Diagonalizer: Serial LAPACK
  Atomic Correction: dense with blas
  Data-type: complex
 

Occupation numbers: # Zero width 

Eigensolver
   LCAO using direct dense diagonalizer 

Densities:
  Coarse grid: 64*56*40 grid
  Fine grid: 128*112*80 grid
  Total Charge: 0.000000 

Density mixing:
  Method: separate
  Backend: pulay
  Linear mixing parameter: 0.25
  old densities: 3
  Damping of long wavelength oscillations: 1  # (no daming) 

Hamiltonian:
  XC and Coulomb potentials evaluated on a 128*112*80 grid
  Using the PBE Exchange-Correlation functional
  Interpolation: tri-quintic (5. degree polynomial)
  Poisson solver: FastPoissonSolver using
    Stencil: 6*3+1=19 point O(h^6) finite-difference Laplacian
    FFT axes: []
    FST axes: [2, 1, 0]
 

XC parameters: PBE with 2 nearest neighbor stencil

Memory estimate:
  Process memory now: 212.55 MiB
  Calculator: 61.49 MiB
    Density: 36.23 MiB
      Arrays: 27.55 MiB
      Localized functions: 2.49 MiB
      Mixer: 6.19 MiB
    Hamiltonian: 18.22 MiB
      Arrays: 18.02 MiB
      XC: 0.00 MiB
      Poisson: 0.00 MiB
      vbar: 0.19 MiB
    Wavefunctions: 7.05 MiB
      C [qnM]: 0.10 MiB
      S, T [2 x qmm]: 0.91 MiB
      P [aqMi]: 0.03 MiB
      BasisFunctions: 6.01 MiB
      Eigensolver: 0.00 MiB

Total number of cores used: 1

Number of atoms: 17
Number of atomic orbitals: 173
Number of bands in calculation: 37
Number of valence electrons: 54
Bands to converge: occupied

... initialized

Initializing position-dependent things.

           .---------------------------------------------.  
          /|                                             |  
         / |                                             |  
        /  |                                             |  
       /   |                                             |  
      /    |                                             |  
     /     |                                             |  
    /      |                                             |  
   /       |                                             |  
  /        |                                             |  
 *         |                                             |  
 |         |               H      H                      |  
 |         |         H C   C C   C C  H                  |  
 |         |        H  C C   C O   CO                    |  
 |         |             H                               |  
 |         .---------------------------------------------.  
 |        /                                             /   
 |       /                                             /    
 |      /                                             /     
 |     /                                             /      
 |    /                                             /       
 |   /                                             /        
 |  /                                             /         
 | /                                             /          
 |/                                             /           
 *---------------------------------------------*            

Positions:
   0 C      7.006027    7.780321    6.000053    ( 0.0000,  0.0000,  0.0000)
   1 C      6.966771    9.190863    6.000059    ( 0.0000,  0.0000,  0.0000)
   2 C      8.226364    7.097648    6.000055    ( 0.0000,  0.0000,  0.0000)
   3 C      8.158212    9.917328    6.000067    ( 0.0000,  0.0000,  0.0000)
   4 C      9.425138    7.832168    6.000067    ( 0.0000,  0.0000,  0.0000)
   5 C      9.408184    9.253351    6.000074    ( 0.0000,  0.0000,  0.0000)
   6 O     10.592755    7.136191    6.000079    ( 0.0000,  0.0000,  0.0000)
   7 C     10.682182    9.928596    6.000065    ( 0.0000,  0.0000,  0.0000)
   8 C     11.863093    7.755129    6.000132    ( 0.0000,  0.0000,  0.0000)
   9 C     11.846966    9.217532    6.000066    ( 0.0000,  0.0000,  0.0000)
  10 H      6.067062    7.206560    6.000045    ( 0.0000,  0.0000,  0.0000)
  11 H      6.000000    9.714791    6.000053    ( 0.0000,  0.0000,  0.0000)
  12 H      8.280437    6.000000    6.000051    ( 0.0000,  0.0000,  0.0000)
  13 H      8.144563   11.018259    6.000066    ( 0.0000,  0.0000,  0.0000)
  14 H     10.697860   11.030481    6.000041    ( 0.0000,  0.0000,  0.0000)
  15 O     12.838497    7.038367    6.000000    ( 0.0000,  0.0000,  0.0000)
  16 H     12.833945    9.699787    6.000029    ( 0.0000,  0.0000,  0.0000)

-----------------------------------
Initializing time-propagation TDDFT
-----------------------------------

Propagator:
SICNPropagator

Logging time propagation
------------------------
      iter  realtime    calctime log(norm)
iter:    0  05:29:29        0.00     -14.4
----  About to do 10 propagation steps
