
  ___ ___ ___ _ _ _  
 |   |   |_  | | | | 
 | | | | | . | | | | 
 |__ |  _|___|_____|  24.1.0
 |___|_|             

User:   ranjan@ranjan-legion-5
Date:   Tue May 14 02:01:31 2024
Arch:   x86_64
Pid:    31732
CWD:    /home/ranjan/src/litesoph_iiserb/test_gaussian_laser/gpaw/gpaw/TaskTypes.GROUND_STATE
Python: 3.10.12
gpaw:   /home/ranjan/.local/lib/python3.10/site-packages/gpaw
_gpaw:  /home/ranjan/.local/lib/python3.10/site-packages/
        _gpaw.cpython-310-x86_64-linux-gnu.so
ase:    /home/ranjan/.local/lib/python3.10/site-packages/ase (version 3.22.1)
numpy:  /home/ranjan/.local/lib/python3.10/site-packages/numpy (version 1.22.4)
scipy:  /home/ranjan/.local/lib/python3.10/site-packages/scipy (version 1.11.4)
libxc:  5.1.7
units:  Angstrom and eV
cores: 1
OpenMP: False
OMP_NUM_THREADS: 1

Input parameters:
  basis: {default: dzp}
  convergence: {bands: occupied,
                density: 1e-05,
                eigenstates: 4e-08,
                energy: 1e-06}
  h: 0.3
  maxiter: 500
  mode: lcao
  occupations: {name: ,
                width: 0.0}
  spinpol: False
  symmetry: {point_group: False}
  xc: PBE

System changes: positions, numbers, cell, pbc, initial_charges, initial_magmoms 

Initialize ...

species:
  C:
    name: Carbon
    id: 4aa54d4b901d75f77cc0ea3eec22967b
    Z: 6.0
    valence: 4
    core: 2
    charge: 0.0
    file: /home/ranjan/Downloads/gpaw-setups-0.9.20000/C.PBE.gz
    compensation charges: {type: gauss,
                           rc: 0.20,
                           lmax: 2}
    cutoffs: {filter: 1.14,
              core: 1.14}
    valence states:
      #              energy  rcut
      - 2s(2.00)   -13.751   0.635
      - 2p(2.00)    -5.284   0.635
      -  s          13.461   0.635
      -  p          21.927   0.635
      -  d           0.000   0.635
  
    # LCAO basis set for C:
    #   Name: dzp
    #   File: /home/ranjan/Downloads/gpaw-setups-0.9.20000/C.dzp.basis.gz
    #   Number of radial functions: 5
    #   Number of spherical harmonics: 13
    #     l=0, rc=5.5469 Bohr: 2s-sz confined orbital
    #     l=1, rc=6.6719 Bohr: 2p-sz confined orbital
    #     l=0, rc=3.0312 Bohr: 2s-dz split-valence wave
    #     l=1, rc=3.7500 Bohr: 2p-dz split-valence wave
    #     l=2, rc=6.6719 Bohr: d-type Gaussian polarization
    #   Number of RI-basis functions 0

  O:
    name: Oxygen
    id: 32ecd46bf208036f09c70b0ec9a88b78
    Z: 8.0
    valence: 6
    core: 2
    charge: 0.0
    file: /home/ranjan/Downloads/gpaw-setups-0.9.20000/O.PBE.gz
    compensation charges: {type: gauss,
                           rc: 0.21,
                           lmax: 2}
    cutoffs: {filter: 1.17,
              core: 0.83}
    valence states:
      #              energy  rcut
      - 2s(2.00)   -23.961   0.688
      - 2p(4.00)    -9.029   0.598
      -  s           3.251   0.688
      -  p          18.182   0.598
      -  d           0.000   0.619
  
    # LCAO basis set for O:
    #   Name: dzp
    #   File: /home/ranjan/Downloads/gpaw-setups-0.9.20000/O.dzp.basis.gz
    #   Number of radial functions: 5
    #   Number of spherical harmonics: 13
    #     l=0, rc=4.3438 Bohr: 2s-sz confined orbital
    #     l=1, rc=5.3906 Bohr: 2p-sz confined orbital
    #     l=0, rc=2.2969 Bohr: 2s-dz split-valence wave
    #     l=1, rc=2.8906 Bohr: 2p-dz split-valence wave
    #     l=2, rc=5.3906 Bohr: d-type Gaussian polarization
    #   Number of RI-basis functions 0

  H:
    name: Hydrogen
    id: d65de229564ff8ea4db303e23b6d1ecf
    Z: 1.0
    valence: 1
    core: 0
    charge: 0.0
    file: /home/ranjan/Downloads/gpaw-setups-0.9.20000/H.PBE.gz
    compensation charges: {type: gauss,
                           rc: 0.15,
                           lmax: 2}
    cutoffs: {filter: 0.85,
              core: 0.53}
    valence states:
      #              energy  rcut
      - 1s(1.00)    -6.494   0.476
      -  s          20.717   0.476
      -  p           0.000   0.476
  
    # LCAO basis set for H:
    #   Name: dzp
    #   File: /home/ranjan/Downloads/gpaw-setups-0.9.20000/H.dzp.basis.gz
    #   Number of radial functions: 3
    #   Number of spherical harmonics: 5
    #     l=0, rc=6.4219 Bohr: 1s-sz confined orbital
    #     l=0, rc=3.6094 Bohr: 1s-dz split-valence wave
    #     l=1, rc=6.4219 Bohr: p-type Gaussian polarization
    #   Number of RI-basis functions 0

Reference energy: -13405.298615  # eV

Spin-paired calculation

Convergence criteria:
 Maximum [total energy] change in last 3 cyles: 1e-06 eV / valence electron
 Maximum integral of absolute [dens]ity change: 1e-05 electrons / valence electron
 Maximum integral of absolute [eigenst]ate change: 4e-08 eV^2 / valence electron
 Maximum number of scf [iter]ations: 500
 (Square brackets indicate name in SCF output, whereas a 'c' in
 the SCF output indicates the quantity has converged.)

Symmetries present (total): 1

  ( 1  0  0)
  ( 0  1  0)
  ( 0  0  1)

1 k-point (Gamma)
1 k-point in the irreducible part of the Brillouin zone
       k-points in crystal coordinates                weights
   0:     0.00000000    0.00000000    0.00000000          1/1

Wave functions: LCAO
  Diagonalizer: Serial LAPACK
  Atomic Correction: dense with blas
  Data-type: float
 

Occupation numbers: # Zero width 

Eigensolver
   LCAO using direct dense diagonalizer 

Densities:
  Coarse grid: 64*56*40 grid
  Fine grid: 128*112*80 grid
  Total Charge: 0.000000 

Density mixing:
  Method: separate
  Backend: pulay
  Linear mixing parameter: 0.25
  old densities: 3
  Damping of long wavelength oscillations: 1  # (no daming) 

Hamiltonian:
  XC and Coulomb potentials evaluated on a 128*112*80 grid
  Using the PBE Exchange-Correlation functional
  Interpolation: tri-quintic (5. degree polynomial)
  Poisson solver: FastPoissonSolver using
    Stencil: 6*3+1=19 point O(h^6) finite-difference Laplacian
    FFT axes: []
    FST axes: [2, 1, 0]
 

XC parameters: PBE with 2 nearest neighbor stencil

Memory estimate:
  Process memory now: 184.13 MiB
  Calculator: 60.98 MiB
    Density: 36.23 MiB
      Arrays: 27.55 MiB
      Localized functions: 2.49 MiB
      Mixer: 6.19 MiB
    Hamiltonian: 18.22 MiB
      Arrays: 18.02 MiB
      XC: 0.00 MiB
      Poisson: 0.00 MiB
      vbar: 0.19 MiB
    Wavefunctions: 6.54 MiB
      C [qnM]: 0.05 MiB
      S, T [2 x qmm]: 0.46 MiB
      P [aqMi]: 0.03 MiB
      BasisFunctions: 6.01 MiB
      Eigensolver: 0.00 MiB

Total number of cores used: 1

Number of atoms: 17
Number of atomic orbitals: 173
Number of bands in calculation: 37
Number of valence electrons: 54
Bands to converge: occupied

... initialized

Initializing position-dependent things.

Density initialized from atomic densities
           .---------------------------------------------.  
          /|                                             |  
         / |                                             |  
        /  |                                             |  
       /   |                                             |  
      /    |                                             |  
     /     |                                             |  
    /      |                                             |  
   /       |                                             |  
  /        |                                             |  
 *         |                                             |  
 |         |               H      H                      |  
 |         |         H C   C C   C C  H                  |  
 |         |        H  C C   C O   CO                    |  
 |         |             H                               |  
 |         .---------------------------------------------.  
 |        /                                             /   
 |       /                                             /    
 |      /                                             /     
 |     /                                             /      
 |    /                                             /       
 |   /                                             /        
 |  /                                             /         
 | /                                             /          
 |/                                             /           
 *---------------------------------------------*            

Positions:
   0 C      7.006027    7.780321    6.000053    ( 0.0000,  0.0000,  0.0000)
   1 C      6.966771    9.190863    6.000059    ( 0.0000,  0.0000,  0.0000)
   2 C      8.226364    7.097648    6.000055    ( 0.0000,  0.0000,  0.0000)
   3 C      8.158212    9.917328    6.000067    ( 0.0000,  0.0000,  0.0000)
   4 C      9.425138    7.832168    6.000067    ( 0.0000,  0.0000,  0.0000)
   5 C      9.408184    9.253351    6.000074    ( 0.0000,  0.0000,  0.0000)
   6 O     10.592755    7.136191    6.000079    ( 0.0000,  0.0000,  0.0000)
   7 C     10.682182    9.928596    6.000065    ( 0.0000,  0.0000,  0.0000)
   8 C     11.863093    7.755129    6.000132    ( 0.0000,  0.0000,  0.0000)
   9 C     11.846966    9.217532    6.000066    ( 0.0000,  0.0000,  0.0000)
  10 H      6.067062    7.206560    6.000045    ( 0.0000,  0.0000,  0.0000)
  11 H      6.000000    9.714791    6.000053    ( 0.0000,  0.0000,  0.0000)
  12 H      8.280437    6.000000    6.000051    ( 0.0000,  0.0000,  0.0000)
  13 H      8.144563   11.018259    6.000066    ( 0.0000,  0.0000,  0.0000)
  14 H     10.697860   11.030481    6.000041    ( 0.0000,  0.0000,  0.0000)
  15 O     12.838497    7.038367    6.000000    ( 0.0000,  0.0000,  0.0000)
  16 H     12.833945    9.699787    6.000029    ( 0.0000,  0.0000,  0.0000)

Unit cell:
           periodic     x           y           z      points  spacing
  1. axis:    no    18.838497    0.000000    0.000000    64     0.2944
  2. axis:    no     0.000000   17.030481    0.000000    56     0.3041
  3. axis:    no     0.000000    0.000000   12.000132    40     0.3000

  Lengths:  18.838497  17.030481  12.000132
  Angles:   90.000000  90.000000  90.000000

Effective grid spacing dv^(1/3) = 0.2995

     iter     time        total  log10-change:
                         energy   eigst   dens
iter:   1 02:01:33  -106.837185        c
iter:   2 02:01:33  -104.179496        c -0.85
iter:   3 02:01:34  -103.337910        c -1.03
iter:   4 02:01:35  -103.247586        c -1.32
iter:   5 02:01:36  -103.228529        c -1.86
iter:   6 02:01:37  -103.225989        c -2.37
iter:   7 02:01:37  -103.225249        c -2.66
iter:   8 02:01:38  -103.225184        c -3.13
iter:   9 02:01:39  -103.225170        c -3.36
iter:  10 02:01:40  -103.225165c       c -3.62
iter:  11 02:01:41  -103.225165c       c -3.95
iter:  12 02:01:41  -103.225166c       c -4.22
iter:  13 02:01:42  -103.225166c       c -4.49
iter:  14 02:01:43  -103.225166c       c -4.79
iter:  15 02:01:44  -103.225166c       c -5.02c

Converged after 15 iterations.

Dipole moment: (-0.671244, 0.579355, 0.000027) |e|*Ang

Energy contributions relative to reference atoms: (reference = -13405.298615)

Kinetic:        +79.124517
Potential:      -85.585735
External:        +0.000000
XC:            -103.664126
Entropy (-ST):   +0.000000
Local:           +6.900178
SIC:             +0.000000
--------------------------
Free energy:   -103.225166
Extrapolated:  -103.225166

 Band  Eigenvalues  Occupancy
    0    -27.79632    2.00000
    1    -25.65336    2.00000
    2    -21.75474    2.00000
    3    -20.54793    2.00000
    4    -18.97971    2.00000
    5    -18.74717    2.00000
    6    -16.31494    2.00000
    7    -16.13540    2.00000
    8    -15.44884    2.00000
    9    -13.85818    2.00000
   10    -13.09779    2.00000
   11    -12.23953    2.00000
   12    -11.58378    2.00000
   13    -11.46664    2.00000
   14    -11.10284    2.00000
   15    -10.85223    2.00000
   16    -10.28769    2.00000
   17    -10.21936    2.00000
   18     -9.55907    2.00000
   19     -9.28495    2.00000
   20     -9.07738    2.00000
   21     -8.55411    2.00000
   22     -8.10916    2.00000
   23     -7.87919    2.00000
   24     -6.38372    2.00000
   25     -6.21564    2.00000
   26     -5.86075    2.00000
   27     -2.74052    0.00000
   28     -1.34503    0.00000
   29     -1.01096    0.00000
   30      1.05338    0.00000
   31      1.38672    0.00000
   32      1.66213    0.00000
   33      2.64132    0.00000
   34      3.02079    0.00000
   35      3.27213    0.00000
   36      3.36068    0.00000

Fermi level: -4.30063

Gap: 3.120 eV
Transition (v -> c):
  (s=0, k=0, n=26, [0.00, 0.00, 0.00]) -> (s=0, k=0, n=27, [0.00, 0.00, 0.00])
Writing to gs.gpw (mode='all')

Timing:                              incl.     excl.
-----------------------------------------------------------
Basic WFS set positions:             0.000     0.000   0.0% |
Basis functions set positions:       0.013     0.013   0.1% |
LCAO WFS Initialize:                 0.587     0.018   0.1% |
 Hamiltonian:                        0.569     0.000   0.0% |
  Atomic:                            0.234     0.001   0.0% |
   XC Correction:                    0.233     0.233   1.8% ||
  Calculate atomic Hamiltonians:     0.001     0.001   0.0% |
  Communicate:                       0.000     0.000   0.0% |
  Hartree integrate/restrict:        0.017     0.017   0.1% |
  Initialize Hamiltonian:            0.000     0.000   0.0% |
  Poisson:                           0.098     0.011   0.1% |
   Communicate from 1D:              0.010     0.010   0.1% |
   Communicate from 2D:              0.008     0.008   0.1% |
   Communicate to 1D:                0.013     0.013   0.1% |
   Communicate to 2D:                0.009     0.009   0.1% |
   FFT 1D:                           0.016     0.016   0.1% |
   FFT 2D:                           0.032     0.032   0.2% |
  XC 3D grid:                        0.213     0.213   1.6% ||
  vbar:                              0.005     0.005   0.0% |
P tci:                               0.051     0.051   0.4% |
SCF-cycle:                          11.164     0.008   0.1% |
 Density:                            1.646     0.000   0.0% |
  Atomic density matrices:           0.015     0.015   0.1% |
  Mix:                               0.829     0.829   6.3% |--|
  Multipole moments:                 0.005     0.005   0.0% |
  Normalize:                         0.002     0.002   0.0% |
  Pseudo density:                    0.795     0.005   0.0% |
   Calculate density matrix:         0.015     0.015   0.1% |
   Construct density:                0.775     0.775   5.9% |-|
   Symmetrize density:               0.000     0.000   0.0% |
 Hamiltonian:                        8.278     0.001   0.0% |
  Atomic:                            3.357     0.016   0.1% |
   XC Correction:                    3.340     3.340  25.4% |---------|
  Calculate atomic Hamiltonians:     0.015     0.015   0.1% |
  Communicate:                       0.000     0.000   0.0% |
  Hartree integrate/restrict:        0.169     0.169   1.3% ||
  Poisson:                           1.323     0.085   0.6% |
   Communicate from 1D:              0.135     0.135   1.0% |
   Communicate from 2D:              0.106     0.106   0.8% |
   Communicate to 1D:                0.178     0.178   1.3% ||
   Communicate to 2D:                0.131     0.131   1.0% |
   FFT 1D:                           0.223     0.223   1.7% ||
   FFT 2D:                           0.465     0.465   3.5% ||
  XC 3D grid:                        3.332     3.332  25.3% |---------|
  vbar:                              0.081     0.081   0.6% |
 LCAO eigensolver:                   1.233     0.002   0.0% |
  Calculate projections:             0.018     0.018   0.1% |
  DenseAtomicCorrection:             0.090     0.090   0.7% |
  Distribute overlap matrix:         0.000     0.000   0.0% |
  Orbital Layouts:                   0.322     0.322   2.4% ||
  Potential matrix:                  0.801     0.801   6.1% |-|
ST tci:                              0.020     0.020   0.1% |
Set symmetry:                        0.003     0.003   0.0% |
TCI: Evaluate splines:               0.215     0.215   1.6% ||
mktci:                               0.003     0.003   0.0% |
Other:                               1.110     1.110   8.4% |--|
-----------------------------------------------------------
Total:                                        13.166 100.0%

Memory usage: 243.98 MiB
Date: Tue May 14 02:01:44 2024
