
  ___ ___ ___ _ _ _  
 |   |   |_  | | | | 
 | | | | | . | | | | 
 |__ |  _|___|_____|  20.10.0
 |___|_|             

User:   huma@hartree
Date:   Mon Dec 27 13:51:46 2021
Arch:   x86_64
Pid:    7584
Python: 3.8.8
gpaw:   /home/huma/anaconda3/lib/python3.8/site-packages/gpaw
_gpaw:  /home/huma/anaconda3/lib/python3.8/site-packages/
        _gpaw.cpython-38-x86_64-linux-gnu.so
ase:    /home/huma/anaconda3/lib/python3.8/site-packages/ase (version 3.22.0)
numpy:  /home/huma/anaconda3/lib/python3.8/site-packages/numpy (version 1.20.1)
scipy:  /home/huma/anaconda3/lib/python3.8/site-packages/scipy (version 1.6.2)
libxc:  4.3.4
units:  Angstrom and eV
cores: 1
OMP_NUM_THREADS: 1

Input parameters:
  basis: dzp
  convergence: {bands: occupied,
                energy: 5e-05}
  h: 0.3
  maxiter: 300
  mode: lcao
  nbands: 10

System changes: positions, numbers, cell, pbc, initial_charges, initial_magmoms 

Initialize ...

Na-setup:
  name: Sodium
  id: 74d681ec425db66acd6a232eb07f04e6
  Z: 11.0
  valence: 7
  core: 4
  charge: 0.0
  file: /home/huma/anaconda3/share/gpaw/Na.LDA.gz
  compensation charges: gauss, rc=0.37, lmax=2
  cutoffs: 2.17(filt), 2.59(core),
  valence states:
                energy  radius
    3s(1.00)    -2.819   1.201
    2p(6.00)   -28.826   1.217
    3p(0.00)    -0.774   1.217
    *s          24.392   1.201
    *d           0.000   1.238

  LCAO basis set for Na:
    Name: dzp
    File: /home/huma/anaconda3/share/gpaw/Na.dzp.basis.gz
    Number of radial functions: 7
    Number of spherical harmonics: 17
      l=0, rc=11.4062 Bohr: 3s-sz confined orbital
      l=1, rc=3.6719 Bohr: 2p-sz confined orbital
      l=1, rc=15.9375 Bohr: 3p-sz confined orbital
      l=0, rc=6.9531 Bohr: 3s-dz split-valence wave
      l=1, rc=2.4219 Bohr: 2p-dz split-valence wave
      l=1, rc=10.0469 Bohr: 3p-dz split-valence wave
      l=1, rc=11.4062 Bohr: p-type Gaussian polarization

Reference energy: -8797.417089

Spin-paired calculation

Convergence criteria:
  Maximum total energy change: 5e-05 eV / electron
  Maximum integral of absolute density change: 0.0001 electrons
  Maximum integral of absolute eigenstate change: 4e-08 eV^2
  Maximum number of iterations: 300

Symmetries present (total): 16

  ( 1  0  0)  ( 1  0  0)  ( 1  0  0)  ( 1  0  0)  ( 0  1  0)  ( 0  1  0)
  ( 0  1  0)  ( 0  1  0)  ( 0 -1  0)  ( 0 -1  0)  ( 1  0  0)  ( 1  0  0)
  ( 0  0  1)  ( 0  0 -1)  ( 0  0  1)  ( 0  0 -1)  ( 0  0  1)  ( 0  0 -1)

  ( 0  1  0)  ( 0  1  0)  ( 0 -1  0)  ( 0 -1  0)  ( 0 -1  0)  ( 0 -1  0)
  (-1  0  0)  (-1  0  0)  ( 1  0  0)  ( 1  0  0)  (-1  0  0)  (-1  0  0)
  ( 0  0  1)  ( 0  0 -1)  ( 0  0  1)  ( 0  0 -1)  ( 0  0  1)  ( 0  0 -1)

  (-1  0  0)  (-1  0  0)  (-1  0  0)  (-1  0  0)
  ( 0  1  0)  ( 0  1  0)  ( 0 -1  0)  ( 0 -1  0)
  ( 0  0  1)  ( 0  0 -1)  ( 0  0  1)  ( 0  0 -1)

1 k-point (Gamma)
1 k-point in the irreducible part of the Brillouin zone
       k-points in crystal coordinates                weights
   0:     0.00000000    0.00000000    0.00000000          1/1

Wave functions: LCAO
  Diagonalizer: Serial LAPACK
  Atomic Correction: dense with blas
  Datatype: float
 

<gpaw.occupations.ZeroWidth object at 0x7f8f48d7b430>
Eigensolver
   LCAO using direct dense diagonalizer 

Densities:
  Coarse grid: 40*40*52 grid
  Fine grid: 80*80*104 grid
  Total Charge: 0.000000 

Density mixing:
  Method: separate
  Backend: pulay
  Linear mixing parameter: 0.25
  Mixing with 3 old densities
  No damping of long wave oscillations 

Hamiltonian:
  XC and Coulomb potentials evaluated on a 80*80*104 grid
  Using the LDA Exchange-Correlation functional
  Interpolation: tri-quintic (5. degree polynomial)
  Poisson solver: FastPoissonSolver using
    6*3+1=19 point O(h^6) finite-difference Laplacian stencil;
    FFT axes: [];
    FST axes: [0, 1, 2].
 

Memory estimate:
  Process memory now: 159.68 MiB
  Calculator: 40.62 MiB
    Density: 22.16 MiB
      Arrays: 15.90 MiB
      Localized functions: 2.71 MiB
      Mixer: 3.55 MiB
    Hamiltonian: 10.60 MiB
      Arrays: 10.40 MiB
      XC: 0.00 MiB
      Poisson: 0.00 MiB
      vbar: 0.20 MiB
    Wavefunctions: 7.86 MiB
      C [qnM]: 0.00 MiB
      S, T [2 x qmm]: 0.02 MiB
      P [aqMi]: 0.00 MiB
      BasisFunctions: 7.84 MiB
      Eigensolver: 0.00 MiB

Total number of cores used: 1

Number of atoms: 2
Number of atomic orbitals: 34
Number of bands in calculation: 10
Number of valence electrons: 14
Bands to converge: occupied

... initialized

Initializing position-dependent things.

Density initialized from atomic densities
        .----------------------------.  
       /|                            |  
      / |                            |  
     /  |                            |  
    /   |                            |  
   /    |                            |  
  /     |                            |  
 *      |                            |  
 |      |                            |  
 |      |                            |  
 |      |                            |  
 |      |          Na                |  
 |      |                            |  
 |      |                            |  
 |      |                            |  
 |      |          Na                |  
 |      |                            |  
 |      |                            |  
 |      |                            |  
 |      .----------------------------.  
 |     /                            /   
 |    /                            /    
 |   /                            /     
 |  /                            /      
 | /                            /       
 |/                            /        
 *----------------------------*         

Positions:
   0 Na     6.000000    6.000000    6.000000    ( 0.0000,  0.0000,  0.0000)
   1 Na     6.000000    6.000000    9.120000    ( 0.0000,  0.0000,  0.0000)

Unit cell:
           periodic     x           y           z      points  spacing
  1. axis:    no    12.000000    0.000000    0.000000    40     0.3000
  2. axis:    no     0.000000   12.000000    0.000000    40     0.3000
  3. axis:    no     0.000000    0.000000   15.120000    52     0.2908

  Lengths:  12.000000  12.000000  15.120000
  Angles:   90.000000  90.000000  90.000000

Effective grid spacing dv^(1/3) = 0.2969

                     log10-error:    total        iterations:
           time      wfs    density  energy       poisson
iter:   1  13:51:47                  -1.283443    1      
iter:   2  13:51:47         -1.23    -1.197250    1      
iter:   3  13:51:47         -1.43    -1.144969    1      
iter:   4  13:51:48         -2.59    -1.145108    1      
iter:   5  13:51:48         -2.61    -1.144995    1      
iter:   6  13:51:48         -3.82    -1.144992    1      
iter:   7  13:51:48         -4.00    -1.144990    1      

Converged after 7 iterations.

Dipole moment: (0.000000, 0.000000, 0.000000) |e|*Ang

Energy contributions relative to reference atoms: (reference = -8797.417089)

Kinetic:         +3.043157
Potential:       -2.733867
External:        +0.000000
XC:              -1.488328
Entropy (-ST):   +0.000000
Local:           +0.034049
--------------------------
Free energy:     -1.144990
Extrapolated:    -1.144990

 Band  Eigenvalues  Occupancy
    0    -28.04480    2.00000
    1    -28.01972    2.00000
    2    -28.01972    2.00000
    3    -28.01401    2.00000
    4    -28.01401    2.00000
    5    -27.99401    2.00000
    6     -3.04085    2.00000
    7     -1.78652    0.00000
    8     -0.81512    0.00000
    9     -0.81512    0.00000

Fermi level: -2.41368

Gap: 1.254 eV
Transition (v -> c):
  (s=0, k=0, n=6, [0.00, 0.00, 0.00]) -> (s=0, k=0, n=7, [0.00, 0.00, 0.00])
Writing to /home/huma/repo/litesoph/example/Na2/GS/gs.gpw (mode='all')

Timing:                              incl.     excl.
-----------------------------------------------------------
Basic WFS set positions:             0.001     0.001   0.0% |
Basis functions set positions:       0.006     0.006   0.3% |
LCAO WFS Initialize:                 0.156     0.005   0.2% |
 Hamiltonian:                        0.151     0.000   0.0% |
  Atomic:                            0.020     0.000   0.0% |
   XC Correction:                    0.020     0.020   0.9% |
  Calculate atomic Hamiltonians:     0.001     0.001   0.0% |
  Communicate:                       0.000     0.000   0.0% |
  Hartree integrate/restrict:        0.003     0.003   0.1% |
  Initialize Hamiltonian:            0.000     0.000   0.0% |
  Poisson:                           0.041     0.003   0.1% |
   Communicate from 1D:              0.003     0.003   0.1% |
   Communicate from 2D:              0.003     0.003   0.1% |
   Communicate to 1D:                0.005     0.005   0.2% |
   Communicate to 2D:                0.004     0.004   0.2% |
   FFT 1D:                           0.008     0.008   0.4% |
   FFT 2D:                           0.014     0.014   0.6% |
  XC 3D grid:                        0.084     0.084   3.7% ||
  vbar:                              0.002     0.002   0.1% |
P tci:                               0.001     0.001   0.1% |
SCF-cycle:                           1.398     0.002   0.1% |
 Density:                            0.397     0.000   0.0% |
  Atomic density matrices:           0.003     0.003   0.1% |
  Mix:                               0.027     0.027   1.2% |
  Multipole moments:                 0.000     0.000   0.0% |
  Normalize:                         0.000     0.000   0.0% |
  Pseudo density:                    0.367     0.001   0.1% |
   Calculate density matrix:         0.000     0.000   0.0% |
   Construct density:                0.068     0.068   3.0% ||
   Symmetrize density:               0.297     0.297  13.2% |----|
 Hamiltonian:                        0.906     0.000   0.0% |
  Atomic:                            0.128     0.002   0.1% |
   XC Correction:                    0.126     0.126   5.6% |-|
  Calculate atomic Hamiltonians:     0.003     0.003   0.2% |
  Communicate:                       0.000     0.000   0.0% |
  Hartree integrate/restrict:        0.016     0.016   0.7% |
  Poisson:                           0.235     0.011   0.5% |
   Communicate from 1D:              0.022     0.022   1.0% |
   Communicate from 2D:              0.020     0.020   0.9% |
   Communicate to 1D:                0.019     0.019   0.9% |
   Communicate to 2D:                0.019     0.019   0.9% |
   FFT 1D:                           0.053     0.053   2.3% ||
   FFT 2D:                           0.090     0.090   4.0% |-|
  XC 3D grid:                        0.517     0.517  23.0% |--------|
  vbar:                              0.006     0.006   0.2% |
 LCAO eigensolver:                   0.092     0.000   0.0% |
  Calculate projections:             0.000     0.000   0.0% |
  DenseAtomicCorrection:             0.001     0.001   0.0% |
  Distribute overlap matrix:         0.000     0.000   0.0% |
  Orbital Layouts:                   0.002     0.002   0.1% |
  Potential matrix:                  0.089     0.089   4.0% |-|
ST tci:                              0.001     0.001   0.0% |
Set symmetry:                        0.002     0.002   0.1% |
TCI: Evaluate splines:               0.094     0.094   4.2% |-|
mktci:                               0.001     0.001   0.0% |
Other:                               0.592     0.592  26.3% |----------|
-----------------------------------------------------------
Total:                                         2.252 100.0%

Memory usage: 189.44 MiB
Date: Mon Dec 27 13:51:48 2021
