
  ___ ___ ___ _ _ _  
 |   |   |_  | | | | 
 | | | | | . | | | | 
 |__ |  _|___|_____|  20.10.0
 |___|_|             

User:   huma@hartree
Date:   Mon Dec 27 14:52:15 2021
Arch:   x86_64
Pid:    8847
Python: 3.8.8
gpaw:   /home/huma/anaconda3/lib/python3.8/site-packages/gpaw
_gpaw:  /home/huma/anaconda3/lib/python3.8/site-packages/
        _gpaw.cpython-38-x86_64-linux-gnu.so
ase:    /home/huma/anaconda3/lib/python3.8/site-packages/ase (version 3.22.0)
numpy:  /home/huma/anaconda3/lib/python3.8/site-packages/numpy (version 1.20.1)
scipy:  /home/huma/anaconda3/lib/python3.8/site-packages/scipy (version 1.6.2)
libxc:  4.3.4
units:  Angstrom and eV
cores: 6
OMP_NUM_THREADS: 1

Reading from /home/huma/repo/litesoph/example/Na2/GS/gs.gpw
Read dipole, energy, free_energy, magmom, magmoms
Reading input parameters:
  basis: dzp
  convergence: {bands: occupied,
                density: 0.0001,
                eigenstates: 4e-08,
                energy: 5e-05,
                forces: inf}
  h: 0.3
  maxiter: 300
  mode: lcao
  nbands: 10

Initialize ...

Na-setup:
  name: Sodium
  id: 74d681ec425db66acd6a232eb07f04e6
  Z: 11.0
  valence: 7
  core: 4
  charge: 0.0
  file: /home/huma/anaconda3/share/gpaw/Na.LDA.gz
  compensation charges: gauss, rc=0.37, lmax=2
  cutoffs: 2.17(filt), 2.59(core),
  valence states:
                energy  radius
    3s(1.00)    -2.819   1.201
    2p(6.00)   -28.826   1.217
    3p(0.00)    -0.774   1.217
    *s          24.392   1.201
    *d           0.000   1.238

  LCAO basis set for Na:
    Name: dzp
    File: /home/huma/anaconda3/share/gpaw/Na.dzp.basis.gz
    Number of radial functions: 7
    Number of spherical harmonics: 17
      l=0, rc=11.4062 Bohr: 3s-sz confined orbital
      l=1, rc=3.6719 Bohr: 2p-sz confined orbital
      l=1, rc=15.9375 Bohr: 3p-sz confined orbital
      l=0, rc=6.9531 Bohr: 3s-dz split-valence wave
      l=1, rc=2.4219 Bohr: 2p-dz split-valence wave
      l=1, rc=10.0469 Bohr: 3p-dz split-valence wave
      l=1, rc=11.4062 Bohr: p-type Gaussian polarization

Reference energy: -8797.417089

Spin-paired calculation

Convergence criteria:
  Maximum total energy change: 5e-05 eV / electron
  Maximum integral of absolute density change: 0.0001 electrons
  Maximum integral of absolute eigenstate change: 4e-08 eV^2
  Maximum number of iterations: 300

Symmetries present (total): 1

  ( 1  0  0)
  ( 0  1  0)
  ( 0  0  1)

1 k-point (Gamma)
1 k-point in the irreducible part of the Brillouin zone
       k-points in crystal coordinates                weights
   0:     0.00000000    0.00000000    0.00000000          1/1

Wave functions: LCAO
  Diagonalizer: Serial LAPACK
  Atomic Correction: dense with blas
  Datatype: complex
 

<gpaw.occupations.ZeroWidth object at 0x7f5c6fb255b0>
Eigensolver
   LCAO using direct dense diagonalizer 

Densities:
  Coarse grid: 40*40*52 grid
  Fine grid: 80*80*104 grid
  Total Charge: 0.000000 

Density mixing:
  Method: separate
  Backend: pulay
  Linear mixing parameter: 0.25
  Mixing with 3 old densities
  No damping of long wave oscillations 

Hamiltonian:
  XC and Coulomb potentials evaluated on a 80*80*104 grid
  Using the LDA Exchange-Correlation functional
  Interpolation: tri-quintic (5. degree polynomial)
  Poisson solver: FastPoissonSolver using
    6*3+1=19 point O(h^6) finite-difference Laplacian stencil;
    FFT axes: [];
    FST axes: [0, 1, 2].
 

Memory estimate:
  Process memory now: 113.36 MiB
  Calculator: 6.69 MiB
    Density: 3.62 MiB
      Arrays: 2.59 MiB
      Localized functions: 0.45 MiB
      Mixer: 0.58 MiB
    Hamiltonian: 1.73 MiB
      Arrays: 1.69 MiB
      XC: 0.00 MiB
      Poisson: 0.00 MiB
      vbar: 0.03 MiB
    Wavefunctions: 1.35 MiB
      C [qnM]: 0.01 MiB
      S, T [2 x qmm]: 0.04 MiB
      P [aqMi]: 0.00 MiB
      BasisFunctions: 1.31 MiB
      Eigensolver: 0.00 MiB

Total number of cores used: 6
Domain decomposition: 1 x 2 x 3

Number of atoms: 2
Number of atomic orbitals: 34
Number of bands in calculation: 10
Number of valence electrons: 14
Bands to converge: occupied

... initialized

Initializing position-dependent things.

        .----------------------------.  
       /|                            |  
      / |                            |  
     /  |                            |  
    /   |                            |  
   /    |                            |  
  /     |                            |  
 *      |                            |  
 |      |                            |  
 |      |                            |  
 |      |                            |  
 |      |          Na                |  
 |      |                            |  
 |      |                            |  
 |      |                            |  
 |      |          Na                |  
 |      |                            |  
 |      |                            |  
 |      |                            |  
 |      .----------------------------.  
 |     /                            /   
 |    /                            /    
 |   /                            /     
 |  /                            /      
 | /                            /       
 |/                            /        
 *----------------------------*         

Positions:
   0 Na     6.000000    6.000000    6.000000    ( 0.0000,  0.0000,  0.0000)
   1 Na     6.000000    6.000000    9.120000    ( 0.0000,  0.0000,  0.0000)

-----------------------------------
Initializing time-propagation TDDFT
-----------------------------------

Propagator:
SICNPropagator

Logging time propagation
------------------------
      iter  realtime    calctime log(norm)
iter:    0  14:52:15        0.00     -15.1
----  About to do 3000 propagation steps
iter:    0  14:52:15       10.00     -15.1
iter:    1  14:52:15       20.00     -15.3
iter:    2  14:52:15       30.00     -15.1
iter:    3  14:52:16       40.00     -15.1
iter:    4  14:52:16       50.00     -15.1
iter:    5  14:52:16       60.00     -15.7
iter:    6  14:52:16       70.00     -15.2
iter:    7  14:52:16       80.00     -15.3
iter:    8  14:52:16       90.00     -15.2
iter:    9  14:52:17      100.00     -15.7
iter:   10  14:52:17      110.00     -15.3
iter:   11  14:52:17      120.00     -15.8
iter:   12  14:52:17      130.00     -16.0
iter:   13  14:52:17      140.00     -15.2
iter:   14  14:52:17      150.00     -15.7
iter:   15  14:52:17      160.00     -15.5
iter:   16  14:52:18      170.00     -15.3
iter:   17  14:52:18      180.00     -15.5
iter:   18  14:52:18      190.00     -14.9
iter:   19  14:52:18      200.00     -15.4
iter:   20  14:52:18      210.00     -16.0
iter:   21  14:52:18      220.00     -15.3
iter:   22  14:52:19      230.00     -14.8
iter:   23  14:52:19      240.00     -15.2
iter:   24  14:52:19      250.00     -15.1
iter:   25  14:52:19      260.00     -15.0
iter:   26  14:52:19      270.00     -15.8
iter:   27  14:52:19      280.00     -15.3
iter:   28  14:52:20      290.00     -15.5
iter:   29  14:52:20      300.00     -15.1
iter:   30  14:52:20      310.00     -15.1
iter:   31  14:52:20      320.00     -14.9
iter:   32  14:52:20      330.00     -15.7
iter:   33  14:52:20      340.00     -15.7
iter:   34  14:52:20      350.00     -15.0
iter:   35  14:52:21      360.00     -15.4
iter:   36  14:52:21      370.00     -14.9
iter:   37  14:52:21      380.00     -15.7
iter:   38  14:52:21      390.00     -15.0
iter:   39  14:52:21      400.00     -15.4
iter:   40  14:52:21      410.00     -15.4
iter:   41  14:52:22      420.00     -15.0
iter:   42  14:52:22      430.00     -15.2
iter:   43  14:52:22      440.00     -15.2
iter:   44  14:52:22      450.00     -14.8
iter:   45  14:52:22      460.00     -15.7
iter:   46  14:52:22      470.00     -15.2
iter:   47  14:52:22      480.00     -15.2
iter:   48  14:52:23      490.00     -15.7
iter:   49  14:52:23      500.00     -15.7
iter:   50  14:52:23      510.00     -15.5
iter:   51  14:52:23      520.00     -14.9
iter:   52  14:52:23      530.00     -15.2
iter:   53  14:52:23      540.00     -15.8
iter:   54  14:52:24      550.00     -15.7
iter:   55  14:52:24      560.00     -15.4
iter:   56  14:52:24      570.00     -15.1
iter:   57  14:52:24      580.00     -15.4
iter:   58  14:52:24      590.00     -15.2
iter:   59  14:52:24      600.00     -15.4
iter:   60  14:52:24      610.00     -15.1
iter:   61  14:52:25      620.00     -15.1
iter:   62  14:52:25      630.00     -15.0
iter:   63  14:52:25      640.00     -15.3
iter:   64  14:52:25      650.00     -15.1
iter:   65  14:52:25      660.00     -15.7
iter:   66  14:52:25      670.00     -15.1
iter:   67  14:52:26      680.00     -15.2
iter:   68  14:52:26      690.00     -15.3
iter:   69  14:52:26      700.00     -15.4
iter:   70  14:52:26      710.00     -15.4
iter:   71  14:52:26      720.00     -15.4
iter:   72  14:52:26      730.00     -15.4
iter:   73  14:52:26      740.00     -15.3
iter:   74  14:52:27      750.00     -15.0
iter:   75  14:52:27      760.00     -14.9
iter:   76  14:52:27      770.00     -15.7
iter:   77  14:52:27      780.00     -15.1
iter:   78  14:52:27      790.00     -15.8
iter:   79  14:52:27      800.00     -15.3
iter:   80  14:52:28      810.00     -15.1
iter:   81  14:52:28      820.00     -15.1
iter:   82  14:52:28      830.00     -15.1
iter:   83  14:52:28      840.00     -16.0
iter:   84  14:52:28      850.00     -15.3
iter:   85  14:52:28      860.00     -15.5
iter:   86  14:52:28      870.00     -15.4
iter:   87  14:52:29      880.00     -15.5
iter:   88  14:52:29      890.00     -15.5
iter:   89  14:52:29      900.00     -15.6
iter:   90  14:52:29      910.00     -15.0
iter:   91  14:52:29      920.00     -15.2
iter:   92  14:52:29      930.00     -15.7
iter:   93  14:52:30      940.00     -15.3
iter:   94  14:52:30      950.00     -15.5
iter:   95  14:52:30      960.00     -15.5
iter:   96  14:52:30      970.00     -15.7
iter:   97  14:52:30      980.00     -15.4
iter:   98  14:52:30      990.00     -14.9
iter:   99  14:52:30     1000.00     -15.1
iter:  100  14:52:31     1010.00     -15.8
iter:  101  14:52:31     1020.00     -15.0
iter:  102  14:52:31     1030.00     -15.0
iter:  103  14:52:31     1040.00     -15.4
iter:  104  14:52:31     1050.00     -15.1
iter:  105  14:52:31     1060.00     -15.1
iter:  106  14:52:32     1070.00     -15.7
iter:  107  14:52:32     1080.00     -15.6
iter:  108  14:52:32     1090.00     -15.1
iter:  109  14:52:32     1100.00     -15.4
iter:  110  14:52:32     1110.00     -15.5
iter:  111  14:52:32     1120.00     -15.7
iter:  112  14:52:33     1130.00     -15.6
iter:  113  14:52:33     1140.00     -15.4
iter:  114  14:52:33     1150.00     -15.6
iter:  115  14:52:33     1160.00     -15.0
iter:  116  14:52:33     1170.00     -15.7
iter:  117  14:52:33     1180.00     -15.5
iter:  118  14:52:33     1190.00     -15.3
iter:  119  14:52:34     1200.00     -15.4
iter:  120  14:52:34     1210.00     -15.5
iter:  121  14:52:34     1220.00     -16.0
iter:  122  14:52:34     1230.00     -15.2
iter:  123  14:52:34     1240.00     -15.6
iter:  124  14:52:34     1250.00     -15.0
iter:  125  14:52:35     1260.00     -14.8
iter:  126  14:52:35     1270.00     -15.4
iter:  127  14:52:35     1280.00     -15.7
iter:  128  14:52:35     1290.00     -15.1
iter:  129  14:52:35     1300.00     -15.4
iter:  130  14:52:35     1310.00     -15.5
iter:  131  14:52:36     1320.00     -15.4
iter:  132  14:52:36     1330.00     -15.5
iter:  133  14:52:36     1340.00     -16.0
iter:  134  14:52:36     1350.00     -15.0
iter:  135  14:52:36     1360.00     -14.9
iter:  136  14:52:36     1370.00     -15.1
iter:  137  14:52:36     1380.00     -15.1
iter:  138  14:52:37     1390.00     -15.4
iter:  139  14:52:37     1400.00     -15.4
iter:  140  14:52:37     1410.00     -15.2
iter:  141  14:52:37     1420.00     -14.9
iter:  142  14:52:37     1430.00     -15.4
iter:  143  14:52:37     1440.00     -15.0
iter:  144  14:52:38     1450.00     -15.2
iter:  145  14:52:38     1460.00     -15.5
iter:  146  14:52:38     1470.00     -15.3
iter:  147  14:52:38     1480.00     -15.3
iter:  148  14:52:38     1490.00     -15.5
iter:  149  14:52:38     1500.00     -15.1
iter:  150  14:52:39     1510.00     -15.3
iter:  151  14:52:39     1520.00     -15.4
iter:  152  14:52:39     1530.00     -15.2
iter:  153  14:52:39     1540.00     -15.8
iter:  154  14:52:39     1550.00     -15.2
iter:  155  14:52:39     1560.00     -15.6
iter:  156  14:52:39     1570.00     -15.4
iter:  157  14:52:40     1580.00     -15.4
iter:  158  14:52:40     1590.00     -15.4
iter:  159  14:52:40     1600.00     -15.8
iter:  160  14:52:40     1610.00     -15.1
iter:  161  14:52:40     1620.00     -15.0
iter:  162  14:52:40     1630.00     -15.1
iter:  163  14:52:40     1640.00     -15.0
iter:  164  14:52:41     1650.00     -15.4
iter:  165  14:52:41     1660.00     -14.8
iter:  166  14:52:41     1670.00     -15.2
iter:  167  14:52:41     1680.00     -15.1
iter:  168  14:52:41     1690.00     -15.6
iter:  169  14:52:41     1700.00     -15.3
iter:  170  14:52:42     1710.00     -15.3
iter:  171  14:52:42     1720.00     -15.3
iter:  172  14:52:42     1730.00     -15.7
iter:  173  14:52:42     1740.00     -15.3
iter:  174  14:52:42     1750.00     -15.2
iter:  175  14:52:42     1760.00     -15.0
iter:  176  14:52:43     1770.00     -16.0
iter:  177  14:52:43     1780.00     -15.7
iter:  178  14:52:43     1790.00     -15.6
iter:  179  14:52:43     1800.00     -15.1
iter:  180  14:52:43     1810.00     -14.9
iter:  181  14:52:43     1820.00     -15.4
iter:  182  14:52:44     1830.00     -15.2
iter:  183  14:52:44     1840.00     -15.6
iter:  184  14:52:44     1850.00     -16.0
iter:  185  14:52:44     1860.00     -15.0
iter:  186  14:52:44     1870.00     -15.1
iter:  187  14:52:44     1880.00     -15.4
iter:  188  14:52:44     1890.00     -15.7
iter:  189  14:52:45     1900.00     -14.8
iter:  190  14:52:45     1910.00     -15.0
iter:  191  14:52:45     1920.00     -15.4
iter:  192  14:52:45     1930.00     -15.2
iter:  193  14:52:45     1940.00     -15.3
iter:  194  14:52:45     1950.00     -15.5
iter:  195  14:52:46     1960.00     -15.7
iter:  196  14:52:46     1970.00     -15.4
iter:  197  14:52:46     1980.00     -15.3
iter:  198  14:52:46     1990.00     -15.1
iter:  199  14:52:46     2000.00     -15.4
iter:  200  14:52:46     2010.00     -16.0
iter:  201  14:52:46     2020.00     -15.1
iter:  202  14:52:47     2030.00     -15.8
iter:  203  14:52:47     2040.00     -14.9
iter:  204  14:52:47     2050.00     -15.2
iter:  205  14:52:47     2060.00     -15.4
iter:  206  14:52:47     2070.00     -15.2
iter:  207  14:52:47     2080.00     -15.8
iter:  208  14:52:48     2090.00     -15.1
iter:  209  14:52:48     2100.00     -15.1
iter:  210  14:52:48     2110.00     -15.0
iter:  211  14:52:48     2120.00     -15.3
iter:  212  14:52:48     2130.00     -15.3
iter:  213  14:52:48     2140.00     -15.8
iter:  214  14:52:49     2150.00     -15.8
iter:  215  14:52:49     2160.00     -16.0
iter:  216  14:52:49     2170.00     -15.3
iter:  217  14:52:49     2180.00     -15.6
iter:  218  14:52:49     2190.00     -15.1
iter:  219  14:52:49     2200.00     -15.2
iter:  220  14:52:49     2210.00     -15.8
iter:  221  14:52:50     2220.00     -15.7
iter:  222  14:52:50     2230.00     -15.1
iter:  223  14:52:50     2240.00     -15.3
iter:  224  14:52:50     2250.00     -15.5
iter:  225  14:52:50     2260.00     -15.8
iter:  226  14:52:50     2270.00     -15.3
iter:  227  14:52:51     2280.00     -15.1
iter:  228  14:52:51     2290.00     -15.5
iter:  229  14:52:51     2300.00     -15.7
iter:  230  14:52:51     2310.00     -15.4
iter:  231  14:52:51     2320.00     -15.1
iter:  232  14:52:51     2330.00     -15.0
iter:  233  14:52:51     2340.00     -15.7
iter:  234  14:52:52     2350.00     -15.8
iter:  235  14:52:52     2360.00     -15.0
iter:  236  14:52:52     2370.00     -15.1
iter:  237  14:52:52     2380.00     -15.4
iter:  238  14:52:52     2390.00     -15.2
iter:  239  14:52:52     2400.00     -15.1
iter:  240  14:52:53     2410.00     -16.0
iter:  241  14:52:53     2420.00     -14.9
iter:  242  14:52:53     2430.00     -15.8
iter:  243  14:52:53     2440.00     -15.8
iter:  244  14:52:53     2450.00     -15.5
iter:  245  14:52:53     2460.00     -15.1
iter:  246  14:52:53     2470.00     -15.6
iter:  247  14:52:54     2480.00     -15.2
iter:  248  14:52:54     2490.00     -15.4
iter:  249  14:52:54     2500.00     -15.1
iter:  250  14:52:54     2510.00     -15.1
iter:  251  14:52:54     2520.00     -15.0
iter:  252  14:52:54     2530.00     -15.6
iter:  253  14:52:55     2540.00     -15.6
iter:  254  14:52:55     2550.00     -14.8
iter:  255  14:52:55     2560.00     -15.4
iter:  256  14:52:55     2570.00     -15.0
iter:  257  14:52:55     2580.00     -15.7
iter:  258  14:52:55     2590.00     -15.5
iter:  259  14:52:56     2600.00     -15.0
iter:  260  14:52:56     2610.00     -15.7
iter:  261  14:52:56     2620.00     -15.2
iter:  262  14:52:56     2630.00     -15.4
iter:  263  14:52:56     2640.00     -15.5
iter:  264  14:52:56     2650.00     -15.2
iter:  265  14:52:56     2660.00     -15.1
iter:  266  14:52:57     2670.00     -15.6
iter:  267  14:52:57     2680.00     -15.4
iter:  268  14:52:57     2690.00     -15.4
iter:  269  14:52:57     2700.00     -15.3
iter:  270  14:52:57     2710.00     -15.1
iter:  271  14:52:57     2720.00     -15.7
iter:  272  14:52:58     2730.00     -15.1
iter:  273  14:52:58     2740.00     -16.0
iter:  274  14:52:58     2750.00     -15.4
iter:  275  14:52:58     2760.00     -14.9
iter:  276  14:52:58     2770.00     -15.4
iter:  277  14:52:58     2780.00     -15.7
iter:  278  14:52:59     2790.00     -15.4
iter:  279  14:52:59     2800.00     -16.0
iter:  280  14:52:59     2810.00     -15.1
iter:  281  14:52:59     2820.00     -15.0
iter:  282  14:52:59     2830.00     -15.4
iter:  283  14:53:00     2840.00     -15.0
iter:  284  14:53:00     2850.00     -15.1
iter:  285  14:53:00     2860.00     -15.6
iter:  286  14:53:00     2870.00     -15.5
iter:  287  14:53:00     2880.00     -15.4
iter:  288  14:53:00     2890.00     -15.5
iter:  289  14:53:00     2900.00     -16.0
iter:  290  14:53:01     2910.00     -15.2
iter:  291  14:53:01     2920.00     -15.4
iter:  292  14:53:01     2930.00     -15.7
iter:  293  14:53:01     2940.00     -15.0
iter:  294  14:53:01     2950.00     -15.4
iter:  295  14:53:01     2960.00     -16.0
iter:  296  14:53:02     2970.00     -15.6
iter:  297  14:53:02     2980.00     -16.0
iter:  298  14:53:02     2990.00     -16.0
iter:  299  14:53:02     3000.00     -15.6
iter:  300  14:53:02     3010.00     -15.3
iter:  301  14:53:02     3020.00     -15.0
iter:  302  14:53:03     3030.00     -15.3
iter:  303  14:53:03     3040.00     -15.7
iter:  304  14:53:03     3050.00     -15.0
iter:  305  14:53:03     3060.00     -15.2
iter:  306  14:53:03     3070.00     -15.8
iter:  307  14:53:03     3080.00     -15.6
iter:  308  14:53:04     3090.00     -15.2
iter:  309  14:53:04     3100.00     -15.1
iter:  310  14:53:04     3110.00     -15.7
iter:  311  14:53:04     3120.00     -15.4
iter:  312  14:53:04     3130.00     -16.0
iter:  313  14:53:04     3140.00     -15.7
iter:  314  14:53:04     3150.00     -15.4
iter:  315  14:53:05     3160.00     -15.1
iter:  316  14:53:05     3170.00     -15.4
iter:  317  14:53:05     3180.00     -15.6
iter:  318  14:53:05     3190.00     -15.4
iter:  319  14:53:05     3200.00     -14.9
iter:  320  14:53:05     3210.00     -15.2
iter:  321  14:53:06     3220.00     -15.1
iter:  322  14:53:06     3230.00     -16.0
iter:  323  14:53:06     3240.00     -15.1
iter:  324  14:53:06     3250.00     -15.1
iter:  325  14:53:06     3260.00     -15.0
iter:  326  14:53:06     3270.00     -15.7
iter:  327  14:53:07     3280.00     -15.2
iter:  328  14:53:07     3290.00     -15.6
iter:  329  14:53:07     3300.00     -15.7
iter:  330  14:53:07     3310.00     -15.0
iter:  331  14:53:07     3320.00     -15.7
iter:  332  14:53:07     3330.00     -15.2
iter:  333  14:53:07     3340.00     -15.2
iter:  334  14:53:08     3350.00     -15.8
iter:  335  14:53:08     3360.00     -15.2
iter:  336  14:53:08     3370.00     -15.3
iter:  337  14:53:08     3380.00     -15.3
iter:  338  14:53:08     3390.00     -15.4
iter:  339  14:53:08     3400.00     -15.3
iter:  340  14:53:09     3410.00     -15.5
iter:  341  14:53:09     3420.00     -15.4
iter:  342  14:53:09     3430.00     -15.1
iter:  343  14:53:09     3440.00     -16.0
iter:  344  14:53:09     3450.00     -15.5
iter:  345  14:53:09     3460.00     -15.4
iter:  346  14:53:10     3470.00     -15.2
iter:  347  14:53:10     3480.00     -15.4
iter:  348  14:53:10     3490.00     -15.4
iter:  349  14:53:10     3500.00     -15.5
iter:  350  14:53:10     3510.00     -15.4
iter:  351  14:53:10     3520.00     -14.9
iter:  352  14:53:10     3530.00     -15.4
iter:  353  14:53:11     3540.00     -15.8
iter:  354  14:53:11     3550.00     -15.1
iter:  355  14:53:11     3560.00     -15.3
iter:  356  14:53:11     3570.00     -15.1
iter:  357  14:53:11     3580.00     -15.8
iter:  358  14:53:11     3590.00     -15.3
iter:  359  14:53:12     3600.00     -15.3
iter:  360  14:53:12     3610.00     -15.3
iter:  361  14:53:12     3620.00     -15.8
iter:  362  14:53:12     3630.00     -15.1
iter:  363  14:53:12     3640.00     -15.3
iter:  364  14:53:12     3650.00     -15.6
iter:  365  14:53:12     3660.00     -15.5
iter:  366  14:53:13     3670.00     -15.2
iter:  367  14:53:13     3680.00     -15.1
iter:  368  14:53:13     3690.00     -14.9
iter:  369  14:53:13     3700.00     -14.9
iter:  370  14:53:13     3710.00     -15.6
iter:  371  14:53:13     3720.00     -15.1
iter:  372  14:53:14     3730.00     -15.1
iter:  373  14:53:14     3740.00     -15.3
iter:  374  14:53:14     3750.00     -15.6
iter:  375  14:53:14     3760.00     -15.2
iter:  376  14:53:14     3770.00     -15.5
iter:  377  14:53:14     3780.00     -15.5
iter:  378  14:53:14     3790.00     -15.3
iter:  379  14:53:15     3800.00     -15.3
iter:  380  14:53:15     3810.00     -15.5
iter:  381  14:53:15     3820.00     -14.9
iter:  382  14:53:15     3830.00     -15.7
iter:  383  14:53:15     3840.00     -15.1
iter:  384  14:53:15     3850.00     -15.3
iter:  385  14:53:16     3860.00     -15.4
iter:  386  14:53:16     3870.00     -16.0
iter:  387  14:53:16     3880.00     -15.1
iter:  388  14:53:16     3890.00     -15.7
iter:  389  14:53:16     3900.00     -15.3
iter:  390  14:53:16     3910.00     -15.4
iter:  391  14:53:17     3920.00     -15.2
iter:  392  14:53:17     3930.00     -15.5
iter:  393  14:53:17     3940.00     -15.1
iter:  394  14:53:17     3950.00     -15.4
iter:  395  14:53:17     3960.00     -15.5
iter:  396  14:53:17     3970.00     -15.0
iter:  397  14:53:17     3980.00     -15.4
iter:  398  14:53:18     3990.00     -15.6
iter:  399  14:53:18     4000.00     -15.2
iter:  400  14:53:18     4010.00     -14.8
iter:  401  14:53:18     4020.00     -15.1
iter:  402  14:53:18     4030.00     -15.2
iter:  403  14:53:18     4040.00     -15.7
iter:  404  14:53:19     4050.00     -15.0
iter:  405  14:53:19     4060.00     -15.6
iter:  406  14:53:19     4070.00     -15.7
iter:  407  14:53:19     4080.00     -15.3
iter:  408  14:53:19     4090.00     -15.8
iter:  409  14:53:19     4100.00     -15.7
iter:  410  14:53:19     4110.00     -14.9
iter:  411  14:53:20     4120.00     -15.8
iter:  412  14:53:20     4130.00     -15.2
iter:  413  14:53:20     4140.00     -15.2
iter:  414  14:53:20     4150.00     -15.2
iter:  415  14:53:20     4160.00     -15.1
iter:  416  14:53:20     4170.00     -15.7
iter:  417  14:53:21     4180.00     -15.8
iter:  418  14:53:21     4190.00     -15.0
iter:  419  14:53:21     4200.00     -15.4
iter:  420  14:53:21     4210.00     -15.3
iter:  421  14:53:21     4220.00     -16.0
iter:  422  14:53:21     4230.00     -15.3
iter:  423  14:53:22     4240.00     -15.6
iter:  424  14:53:22     4250.00     -15.4
iter:  425  14:53:22     4260.00     -15.4
iter:  426  14:53:22     4270.00     -15.4
iter:  427  14:53:22     4280.00     -15.8
iter:  428  14:53:22     4290.00     -15.4
iter:  429  14:53:22     4300.00     -15.1
iter:  430  14:53:23     4310.00     -15.4
iter:  431  14:53:23     4320.00     -15.0
iter:  432  14:53:23     4330.00     -15.6
iter:  433  14:53:23     4340.00     -15.6
iter:  434  14:53:23     4350.00     -15.4
iter:  435  14:53:23     4360.00     -15.7
iter:  436  14:53:24     4370.00     -15.2
iter:  437  14:53:24     4380.00     -15.5
iter:  438  14:53:24     4390.00     -15.4
iter:  439  14:53:24     4400.00     -15.8
iter:  440  14:53:24     4410.00     -15.3
iter:  441  14:53:24     4420.00     -15.0
iter:  442  14:53:24     4430.00     -15.3
iter:  443  14:53:25     4440.00     -14.9
iter:  444  14:53:25     4450.00     -15.5
iter:  445  14:53:25     4460.00     -15.4
iter:  446  14:53:25     4470.00     -15.1
iter:  447  14:53:25     4480.00     -16.0
iter:  448  14:53:25     4490.00     -15.0
iter:  449  14:53:26     4500.00     -15.3
iter:  450  14:53:26     4510.00     -15.7
iter:  451  14:53:26     4520.00     -15.8
iter:  452  14:53:26     4530.00     -15.5
iter:  453  14:53:26     4540.00     -15.2
iter:  454  14:53:26     4550.00     -16.0
iter:  455  14:53:26     4560.00     -15.7
iter:  456  14:53:27     4570.00     -15.1
iter:  457  14:53:27     4580.00     -14.8
iter:  458  14:53:27     4590.00     -15.5
iter:  459  14:53:27     4600.00     -15.8
iter:  460  14:53:27     4610.00     -15.4
iter:  461  14:53:27     4620.00     -15.1
iter:  462  14:53:28     4630.00     -15.8
iter:  463  14:53:28     4640.00     -15.0
iter:  464  14:53:28     4650.00     -15.5
iter:  465  14:53:28     4660.00     -15.7
iter:  466  14:53:28     4670.00     -15.8
iter:  467  14:53:28     4680.00     -15.1
iter:  468  14:53:29     4690.00     -14.8
iter:  469  14:53:29     4700.00     -16.0
iter:  470  14:53:29     4710.00     -15.1
iter:  471  14:53:29     4720.00     -16.0
iter:  472  14:53:29     4730.00     -15.4
iter:  473  14:53:29     4740.00     -15.0
iter:  474  14:53:29     4750.00     -15.3
iter:  475  14:53:30     4760.00     -15.1
iter:  476  14:53:30     4770.00     -15.6
iter:  477  14:53:30     4780.00     -15.1
iter:  478  14:53:30     4790.00     -15.1
iter:  479  14:53:30     4800.00     -15.1
iter:  480  14:53:30     4810.00     -15.0
iter:  481  14:53:31     4820.00     -15.4
iter:  482  14:53:31     4830.00     -15.7
iter:  483  14:53:31     4840.00     -15.6
iter:  484  14:53:31     4850.00     -16.0
iter:  485  14:53:31     4860.00     -14.9
iter:  486  14:53:31     4870.00     -15.1
iter:  487  14:53:32     4880.00     -15.1
iter:  488  14:53:32     4890.00     -16.0
iter:  489  14:53:32     4900.00     -15.3
iter:  490  14:53:32     4910.00     -15.3
iter:  491  14:53:32     4920.00     -15.3
iter:  492  14:53:32     4930.00     -15.1
iter:  493  14:53:32     4940.00     -15.1
iter:  494  14:53:33     4950.00     -15.4
iter:  495  14:53:33     4960.00     -15.3
iter:  496  14:53:33     4970.00     -15.5
iter:  497  14:53:33     4980.00     -15.3
iter:  498  14:53:33     4990.00     -15.3
iter:  499  14:53:33     5000.00     -15.6
iter:  500  14:53:34     5010.00     -15.4
iter:  501  14:53:34     5020.00     -15.3
iter:  502  14:53:34     5030.00     -15.7
iter:  503  14:53:34     5040.00     -15.5
iter:  504  14:53:34     5050.00     -15.7
iter:  505  14:53:34     5060.00     -15.3
iter:  506  14:53:35     5070.00     -15.1
iter:  507  14:53:35     5080.00     -14.9
iter:  508  14:53:35     5090.00     -15.5
iter:  509  14:53:35     5100.00     -15.7
iter:  510  14:53:35     5110.00     -15.4
iter:  511  14:53:35     5120.00     -15.6
iter:  512  14:53:36     5130.00     -15.7
iter:  513  14:53:36     5140.00     -15.8
iter:  514  14:53:36     5150.00     -15.7
iter:  515  14:53:36     5160.00     -14.9
iter:  516  14:53:36     5170.00     -15.7
iter:  517  14:53:36     5180.00     -15.5
iter:  518  14:53:36     5190.00     -15.7
iter:  519  14:53:37     5200.00     -15.4
iter:  520  14:53:37     5210.00     -15.2
iter:  521  14:53:37     5220.00     -15.6
iter:  522  14:53:37     5230.00     -15.4
iter:  523  14:53:37     5240.00     -15.2
iter:  524  14:53:37     5250.00     -15.0
iter:  525  14:53:38     5260.00     -15.0
iter:  526  14:53:38     5270.00     -15.4
iter:  527  14:53:38     5280.00     -15.7
iter:  528  14:53:38     5290.00     -15.1
iter:  529  14:53:38     5300.00     -15.1
iter:  530  14:53:38     5310.00     -15.3
iter:  531  14:53:39     5320.00     -15.1
iter:  532  14:53:39     5330.00     -15.2
iter:  533  14:53:39     5340.00     -15.0
iter:  534  14:53:39     5350.00     -15.1
iter:  535  14:53:39     5360.00     -15.6
iter:  536  14:53:39     5370.00     -15.3
iter:  537  14:53:40     5380.00     -15.4
iter:  538  14:53:40     5390.00     -15.7
iter:  539  14:53:40     5400.00     -15.8
iter:  540  14:53:40     5410.00     -15.8
iter:  541  14:53:40     5420.00     -15.1
iter:  542  14:53:40     5430.00     -15.1
iter:  543  14:53:41     5440.00     -14.9
iter:  544  14:53:41     5450.00     -15.4
iter:  545  14:53:41     5460.00     -15.3
iter:  546  14:53:41     5470.00     -15.3
iter:  547  14:53:41     5480.00     -14.9
iter:  548  14:53:41     5490.00     -15.0
iter:  549  14:53:41     5500.00     -15.7
iter:  550  14:53:42     5510.00     -15.7
iter:  551  14:53:42     5520.00     -15.1
iter:  552  14:53:42     5530.00     -16.0
iter:  553  14:53:42     5540.00     -15.7
iter:  554  14:53:42     5550.00     -15.1
iter:  555  14:53:42     5560.00     -15.8
iter:  556  14:53:43     5570.00     -15.2
iter:  557  14:53:43     5580.00     -15.3
iter:  558  14:53:43     5590.00     -15.7
iter:  559  14:53:43     5600.00     -15.1
iter:  560  14:53:43     5610.00     -15.4
iter:  561  14:53:43     5620.00     -15.1
iter:  562  14:53:44     5630.00     -15.3
iter:  563  14:53:44     5640.00     -16.0
iter:  564  14:53:44     5650.00     -15.4
iter:  565  14:53:44     5660.00     -15.1
iter:  566  14:53:44     5670.00     -15.0
iter:  567  14:53:44     5680.00     -15.4
iter:  568  14:53:45     5690.00     -15.4
iter:  569  14:53:45     5700.00     -15.3
iter:  570  14:53:45     5710.00     -15.2
iter:  571  14:53:45     5720.00     -15.1
iter:  572  14:53:45     5730.00     -15.7
iter:  573  14:53:45     5740.00     -15.6
iter:  574  14:53:45     5750.00     -15.4
iter:  575  14:53:46     5760.00     -15.1
iter:  576  14:53:46     5770.00     -15.7
iter:  577  14:53:46     5780.00     -15.5
iter:  578  14:53:46     5790.00     -15.4
iter:  579  14:53:46     5800.00     -15.3
iter:  580  14:53:46     5810.00     -15.7
iter:  581  14:53:47     5820.00     -15.1
iter:  582  14:53:47     5830.00     -15.5
iter:  583  14:53:47     5840.00     -15.2
iter:  584  14:53:47     5850.00     -15.2
iter:  585  14:53:47     5860.00     -15.5
iter:  586  14:53:47     5870.00     -15.6
iter:  587  14:53:48     5880.00     -15.4
iter:  588  14:53:48     5890.00     -16.0
iter:  589  14:53:48     5900.00     -15.1
iter:  590  14:53:48     5910.00     -15.4
iter:  591  14:53:48     5920.00     -15.0
iter:  592  14:53:48     5930.00     -15.3
iter:  593  14:53:48     5940.00     -15.4
iter:  594  14:53:49     5950.00     -16.0
iter:  595  14:53:49     5960.00     -15.1
iter:  596  14:53:49     5970.00     -15.5
iter:  597  14:53:49     5980.00     -15.8
iter:  598  14:53:49     5990.00     -15.5
iter:  599  14:53:49     6000.00     -15.4
iter:  600  14:53:50     6010.00     -15.3
iter:  601  14:53:50     6020.00     -15.2
iter:  602  14:53:50     6030.00     -15.6
iter:  603  14:53:50     6040.00     -15.7
iter:  604  14:53:50     6050.00     -15.6
iter:  605  14:53:50     6060.00     -15.1
iter:  606  14:53:50     6070.00     -14.9
iter:  607  14:53:51     6080.00     -15.3
iter:  608  14:53:51     6090.00     -15.7
iter:  609  14:53:51     6100.00     -15.1
iter:  610  14:53:51     6110.00     -15.8
iter:  611  14:53:51     6120.00     -15.7
iter:  612  14:53:51     6130.00     -15.2
iter:  613  14:53:52     6140.00     -15.8
iter:  614  14:53:52     6150.00     -15.4
iter:  615  14:53:52     6160.00     -15.1
iter:  616  14:53:52     6170.00     -15.3
iter:  617  14:53:52     6180.00     -15.1
iter:  618  14:53:52     6190.00     -15.8
iter:  619  14:53:53     6200.00     -14.9
iter:  620  14:53:53     6210.00     -15.0
iter:  621  14:53:53     6220.00     -15.1
iter:  622  14:53:53     6230.00     -15.8
iter:  623  14:53:53     6240.00     -15.4
iter:  624  14:53:53     6250.00     -15.4
iter:  625  14:53:53     6260.00     -14.9
iter:  626  14:53:54     6270.00     -15.0
iter:  627  14:53:54     6280.00     -15.1
iter:  628  14:53:54     6290.00     -15.3
iter:  629  14:53:54     6300.00     -15.1
iter:  630  14:53:54     6310.00     -15.4
iter:  631  14:53:54     6320.00     -15.7
iter:  632  14:53:55     6330.00     -15.8
iter:  633  14:53:55     6340.00     -15.3
iter:  634  14:53:55     6350.00     -15.7
iter:  635  14:53:55     6360.00     -15.0
iter:  636  14:53:55     6370.00     -15.4
iter:  637  14:53:55     6380.00     -15.3
iter:  638  14:53:56     6390.00     -15.8
iter:  639  14:53:56     6400.00     -15.3
iter:  640  14:53:56     6410.00     -15.8
iter:  641  14:53:56     6420.00     -15.4
iter:  642  14:53:56     6430.00     -15.1
iter:  643  14:53:56     6440.00     -15.1
iter:  644  14:53:56     6450.00     -15.1
iter:  645  14:53:57     6460.00     -15.2
iter:  646  14:53:57     6470.00     -15.0
iter:  647  14:53:57     6480.00     -15.4
iter:  648  14:53:57     6490.00     -15.7
iter:  649  14:53:57     6500.00     -15.4
iter:  650  14:53:57     6510.00     -15.1
iter:  651  14:53:58     6520.00     -15.1
iter:  652  14:53:58     6530.00     -15.5
iter:  653  14:53:58     6540.00     -15.0
iter:  654  14:53:58     6550.00     -15.1
iter:  655  14:53:58     6560.00     -15.0
iter:  656  14:53:58     6570.00     -15.4
iter:  657  14:53:58     6580.00     -15.2
iter:  658  14:53:59     6590.00     -15.1
iter:  659  14:53:59     6600.00     -15.6
iter:  660  14:53:59     6610.00     -15.4
iter:  661  14:53:59     6620.00     -15.3
iter:  662  14:53:59     6630.00     -15.4
iter:  663  14:53:59     6640.00     -15.3
iter:  664  14:54:00     6650.00     -15.2
iter:  665  14:54:00     6660.00     -15.0
iter:  666  14:54:00     6670.00     -15.4
iter:  667  14:54:00     6680.00     -15.0
iter:  668  14:54:00     6690.00     -15.6
iter:  669  14:54:00     6700.00     -16.0
iter:  670  14:54:00     6710.00     -15.5
iter:  671  14:54:01     6720.00     -15.2
iter:  672  14:54:01     6730.00     -15.2
iter:  673  14:54:01     6740.00     -16.0
iter:  674  14:54:01     6750.00     -15.1
iter:  675  14:54:01     6760.00     -15.2
iter:  676  14:54:01     6770.00     -15.1
iter:  677  14:54:02     6780.00     -15.4
iter:  678  14:54:02     6790.00     -15.2
iter:  679  14:54:02     6800.00     -15.4
iter:  680  14:54:02     6810.00     -14.9
iter:  681  14:54:02     6820.00     -15.5
iter:  682  14:54:02     6830.00     -15.0
iter:  683  14:54:02     6840.00     -15.5
iter:  684  14:54:03     6850.00     -15.1
iter:  685  14:54:03     6860.00     -16.0
iter:  686  14:54:03     6870.00     -15.0
iter:  687  14:54:03     6880.00     -15.3
iter:  688  14:54:03     6890.00     -15.8
iter:  689  14:54:03     6900.00     -15.4
iter:  690  14:54:04     6910.00     -15.4
iter:  691  14:54:04     6920.00     -16.0
iter:  692  14:54:04     6930.00     -15.3
iter:  693  14:54:04     6940.00     -15.8
iter:  694  14:54:04     6950.00     -14.8
iter:  695  14:54:04     6960.00     -15.2
iter:  696  14:54:05     6970.00     -15.6
iter:  697  14:54:05     6980.00     -15.2
iter:  698  14:54:05     6990.00     -14.9
iter:  699  14:54:05     7000.00     -15.7
iter:  700  14:54:05     7010.00     -15.5
iter:  701  14:54:05     7020.00     -15.2
iter:  702  14:54:05     7030.00     -15.4
iter:  703  14:54:06     7040.00     -15.7
iter:  704  14:54:06     7050.00     -15.7
iter:  705  14:54:06     7060.00     -15.5
iter:  706  14:54:06     7070.00     -15.7
iter:  707  14:54:06     7080.00     -15.1
iter:  708  14:54:06     7090.00     -15.3
iter:  709  14:54:07     7100.00     -15.4
iter:  710  14:54:07     7110.00     -15.3
iter:  711  14:54:07     7120.00     -15.2
iter:  712  14:54:07     7130.00     -15.3
iter:  713  14:54:07     7140.00     -15.5
iter:  714  14:54:07     7150.00     -15.4
iter:  715  14:54:07     7160.00     -15.1
iter:  716  14:54:08     7170.00     -15.1
iter:  717  14:54:08     7180.00     -15.2
iter:  718  14:54:08     7190.00     -15.3
iter:  719  14:54:08     7200.00     -15.4
iter:  720  14:54:08     7210.00     -15.5
iter:  721  14:54:08     7220.00     -15.3
iter:  722  14:54:09     7230.00     -15.0
iter:  723  14:54:09     7240.00     -15.0
iter:  724  14:54:09     7250.00     -15.4
iter:  725  14:54:09     7260.00     -15.7
iter:  726  14:54:09     7270.00     -15.0
iter:  727  14:54:09     7280.00     -15.0
iter:  728  14:54:09     7290.00     -15.5
iter:  729  14:54:10     7300.00     -15.4
iter:  730  14:54:10     7310.00     -15.3
iter:  731  14:54:10     7320.00     -15.0
iter:  732  14:54:10     7330.00     -15.7
iter:  733  14:54:10     7340.00     -15.1
iter:  734  14:54:10     7350.00     -15.4
iter:  735  14:54:11     7360.00     -15.5
iter:  736  14:54:11     7370.00     -15.8
iter:  737  14:54:11     7380.00     -15.5
iter:  738  14:54:11     7390.00     -16.0
iter:  739  14:54:11     7400.00     -15.2
iter:  740  14:54:11     7410.00     -15.1
iter:  741  14:54:12     7420.00     -15.3
iter:  742  14:54:12     7430.00     -14.9
iter:  743  14:54:12     7440.00     -15.1
iter:  744  14:54:12     7450.00     -15.8
iter:  745  14:54:12     7460.00     -15.3
iter:  746  14:54:12     7470.00     -15.1
iter:  747  14:54:12     7480.00     -15.1
iter:  748  14:54:13     7490.00     -15.2
iter:  749  14:54:13     7500.00     -15.8
iter:  750  14:54:13     7510.00     -15.4
iter:  751  14:54:13     7520.00     -15.8
iter:  752  14:54:13     7530.00     -15.8
iter:  753  14:54:13     7540.00     -15.1
iter:  754  14:54:14     7550.00     -15.3
iter:  755  14:54:14     7560.00     -15.3
iter:  756  14:54:14     7570.00     -15.3
iter:  757  14:54:14     7580.00     -15.5
iter:  758  14:54:14     7590.00     -15.7
iter:  759  14:54:14     7600.00     -15.7
iter:  760  14:54:15     7610.00     -15.4
iter:  761  14:54:15     7620.00     -16.0
iter:  762  14:54:15     7630.00     -15.6
iter:  763  14:54:15     7640.00     -15.5
iter:  764  14:54:15     7650.00     -14.8
iter:  765  14:54:15     7660.00     -15.2
iter:  766  14:54:15     7670.00     -15.1
iter:  767  14:54:16     7680.00     -15.5
iter:  768  14:54:16     7690.00     -15.4
iter:  769  14:54:16     7700.00     -15.6
iter:  770  14:54:16     7710.00     -15.3
iter:  771  14:54:16     7720.00     -15.2
iter:  772  14:54:16     7730.00     -15.1
iter:  773  14:54:17     7740.00     -15.1
iter:  774  14:54:17     7750.00     -14.9
iter:  775  14:54:17     7760.00     -15.7
iter:  776  14:54:17     7770.00     -16.0
iter:  777  14:54:17     7780.00     -15.1
iter:  778  14:54:17     7790.00     -15.4
iter:  779  14:54:18     7800.00     -16.0
iter:  780  14:54:18     7810.00     -15.1
iter:  781  14:54:18     7820.00     -15.3
iter:  782  14:54:18     7830.00     -15.0
iter:  783  14:54:18     7840.00     -15.7
iter:  784  14:54:18     7850.00     -15.2
iter:  785  14:54:18     7860.00     -15.1
iter:  786  14:54:19     7870.00     -15.3
iter:  787  14:54:19     7880.00     -16.0
iter:  788  14:54:19     7890.00     -15.5
iter:  789  14:54:19     7900.00     -15.1
iter:  790  14:54:19     7910.00     -15.4
iter:  791  14:54:19     7920.00     -15.1
iter:  792  14:54:20     7930.00     -15.0
iter:  793  14:54:20     7940.00     -15.0
iter:  794  14:54:20     7950.00     -15.7
iter:  795  14:54:20     7960.00     -15.4
iter:  796  14:54:20     7970.00     -15.5
iter:  797  14:54:20     7980.00     -15.4
iter:  798  14:54:20     7990.00     -15.4
iter:  799  14:54:21     8000.00     -15.3
iter:  800  14:54:21     8010.00     -15.4
iter:  801  14:54:21     8020.00     -16.0
iter:  802  14:54:21     8030.00     -15.4
iter:  803  14:54:21     8040.00     -14.9
iter:  804  14:54:21     8050.00     -15.1
iter:  805  14:54:22     8060.00     -15.5
iter:  806  14:54:22     8070.00     -15.6
iter:  807  14:54:22     8080.00     -15.3
iter:  808  14:54:22     8090.00     -15.0
iter:  809  14:54:22     8100.00     -15.3
iter:  810  14:54:22     8110.00     -15.6
iter:  811  14:54:22     8120.00     -16.0
iter:  812  14:54:23     8130.00     -15.6
iter:  813  14:54:23     8140.00     -15.8
iter:  814  14:54:23     8150.00     -15.5
iter:  815  14:54:23     8160.00     -15.1
iter:  816  14:54:23     8170.00     -15.1
iter:  817  14:54:23     8180.00     -15.5
iter:  818  14:54:24     8190.00     -15.2
iter:  819  14:54:24     8200.00     -15.1
iter:  820  14:54:24     8210.00     -15.4
iter:  821  14:54:24     8220.00     -15.6
iter:  822  14:54:24     8230.00     -15.3
iter:  823  14:54:24     8240.00     -15.3
iter:  824  14:54:24     8250.00     -15.4
iter:  825  14:54:25     8260.00     -15.0
iter:  826  14:54:25     8270.00     -15.5
iter:  827  14:54:25     8280.00     -15.3
iter:  828  14:54:25     8290.00     -15.1
iter:  829  14:54:25     8300.00     -15.1
iter:  830  14:54:25     8310.00     -15.6
iter:  831  14:54:26     8320.00     -15.7
iter:  832  14:54:26     8330.00     -16.0
iter:  833  14:54:26     8340.00     -15.0
iter:  834  14:54:26     8350.00     -15.3
iter:  835  14:54:26     8360.00     -15.3
iter:  836  14:54:26     8370.00     -15.4
iter:  837  14:54:26     8380.00     -15.3
iter:  838  14:54:27     8390.00     -15.2
iter:  839  14:54:27     8400.00     -15.4
iter:  840  14:54:27     8410.00     -16.0
iter:  841  14:54:27     8420.00     -15.3
iter:  842  14:54:27     8430.00     -15.0
iter:  843  14:54:27     8440.00     -15.0
iter:  844  14:54:28     8450.00     -16.0
iter:  845  14:54:28     8460.00     -15.3
iter:  846  14:54:28     8470.00     -15.7
iter:  847  14:54:28     8480.00     -15.8
iter:  848  14:54:28     8490.00     -15.4
iter:  849  14:54:28     8500.00     -15.6
iter:  850  14:54:28     8510.00     -15.6
iter:  851  14:54:29     8520.00     -15.4
iter:  852  14:54:29     8530.00     -15.5
iter:  853  14:54:29     8540.00     -15.2
iter:  854  14:54:29     8550.00     -15.0
iter:  855  14:54:29     8560.00     -14.9
iter:  856  14:54:29     8570.00     -15.4
iter:  857  14:54:30     8580.00     -15.1
iter:  858  14:54:30     8590.00     -15.5
iter:  859  14:54:30     8600.00     -15.0
iter:  860  14:54:30     8610.00     -15.6
iter:  861  14:54:30     8620.00     -15.2
iter:  862  14:54:30     8630.00     -15.8
iter:  863  14:54:30     8640.00     -15.3
iter:  864  14:54:31     8650.00     -15.2
iter:  865  14:54:31     8660.00     -15.3
iter:  866  14:54:31     8670.00     -15.6
iter:  867  14:54:31     8680.00     -15.0
iter:  868  14:54:31     8690.00     -15.1
iter:  869  14:54:31     8700.00     -15.1
iter:  870  14:54:32     8710.00     -15.2
iter:  871  14:54:32     8720.00     -15.1
iter:  872  14:54:32     8730.00     -15.3
iter:  873  14:54:32     8740.00     -15.1
iter:  874  14:54:32     8750.00     -15.7
iter:  875  14:54:32     8760.00     -15.5
iter:  876  14:54:33     8770.00     -15.3
iter:  877  14:54:33     8780.00     -15.3
iter:  878  14:54:33     8790.00     -15.6
iter:  879  14:54:33     8800.00     -15.0
iter:  880  14:54:33     8810.00     -15.5
iter:  881  14:54:34     8820.00     -15.6
iter:  882  14:54:34     8830.00     -15.3
iter:  883  14:54:34     8840.00     -15.7
iter:  884  14:54:34     8850.00     -15.3
iter:  885  14:54:34     8860.00     -15.3
iter:  886  14:54:35     8870.00     -14.9
iter:  887  14:54:35     8880.00     -15.1
iter:  888  14:54:35     8890.00     -15.1
iter:  889  14:54:35     8900.00     -15.4
iter:  890  14:54:35     8910.00     -15.1
iter:  891  14:54:35     8920.00     -15.6
iter:  892  14:54:36     8930.00     -15.6
iter:  893  14:54:36     8940.00     -15.7
iter:  894  14:54:36     8950.00     -15.3
iter:  895  14:54:36     8960.00     -15.3
iter:  896  14:54:36     8970.00     -15.5
iter:  897  14:54:36     8980.00     -15.1
iter:  898  14:54:37     8990.00     -15.6
iter:  899  14:54:37     9000.00     -15.0
iter:  900  14:54:37     9010.00     -15.8
iter:  901  14:54:37     9020.00     -16.0
iter:  902  14:54:37     9030.00     -15.7
iter:  903  14:54:37     9040.00     -15.3
iter:  904  14:54:38     9050.00     -15.3
iter:  905  14:54:38     9060.00     -14.8
iter:  906  14:54:38     9070.00     -15.1
iter:  907  14:54:38     9080.00     -15.6
iter:  908  14:54:38     9090.00     -15.6
iter:  909  14:54:38     9100.00     -15.5
iter:  910  14:54:38     9110.00     -15.8
iter:  911  14:54:39     9120.00     -16.0
iter:  912  14:54:39     9130.00     -14.8
iter:  913  14:54:39     9140.00     -15.1
iter:  914  14:54:39     9150.00     -16.0
iter:  915  14:54:39     9160.00     -15.1
iter:  916  14:54:39     9170.00     -15.1
iter:  917  14:54:40     9180.00     -15.6
iter:  918  14:54:40     9190.00     -15.0
iter:  919  14:54:40     9200.00     -15.4
iter:  920  14:54:40     9210.00     -15.5
iter:  921  14:54:40     9220.00     -15.1
iter:  922  14:54:40     9230.00     -14.9
iter:  923  14:54:40     9240.00     -15.8
iter:  924  14:54:41     9250.00     -15.6
iter:  925  14:54:41     9260.00     -15.2
iter:  926  14:54:41     9270.00     -15.4
iter:  927  14:54:41     9280.00     -15.3
iter:  928  14:54:41     9290.00     -15.7
iter:  929  14:54:41     9300.00     -15.1
iter:  930  14:54:42     9310.00     -15.1
iter:  931  14:54:42     9320.00     -15.4
iter:  932  14:54:42     9330.00     -15.0
iter:  933  14:54:42     9340.00     -14.9
iter:  934  14:54:42     9350.00     -15.3
iter:  935  14:54:42     9360.00     -15.1
iter:  936  14:54:42     9370.00     -15.3
iter:  937  14:54:43     9380.00     -15.7
iter:  938  14:54:43     9390.00     -15.1
iter:  939  14:54:43     9400.00     -15.8
iter:  940  14:54:43     9410.00     -15.7
iter:  941  14:54:43     9420.00     -15.3
iter:  942  14:54:43     9430.00     -15.6
iter:  943  14:54:44     9440.00     -15.3
iter:  944  14:54:44     9450.00     -15.4
iter:  945  14:54:44     9460.00     -15.3
iter:  946  14:54:44     9470.00     -15.6
iter:  947  14:54:44     9480.00     -16.0
iter:  948  14:54:44     9490.00     -15.5
iter:  949  14:54:44     9500.00     -15.1
iter:  950  14:54:45     9510.00     -15.1
iter:  951  14:54:45     9520.00     -15.5
iter:  952  14:54:45     9530.00     -15.8
iter:  953  14:54:45     9540.00     -15.7
iter:  954  14:54:45     9550.00     -15.5
iter:  955  14:54:45     9560.00     -15.6
iter:  956  14:54:46     9570.00     -14.9
iter:  957  14:54:46     9580.00     -15.1
iter:  958  14:54:46     9590.00     -16.0
iter:  959  14:54:46     9600.00     -15.3
iter:  960  14:54:46     9610.00     -15.2
iter:  961  14:54:46     9620.00     -14.9
iter:  962  14:54:46     9630.00     -15.7
iter:  963  14:54:47     9640.00     -15.4
iter:  964  14:54:47     9650.00     -15.1
iter:  965  14:54:47     9660.00     -15.8
iter:  966  14:54:47     9670.00     -15.4
iter:  967  14:54:47     9680.00     -15.1
iter:  968  14:54:47     9690.00     -15.2
iter:  969  14:54:48     9700.00     -15.4
iter:  970  14:54:48     9710.00     -15.1
iter:  971  14:54:48     9720.00     -15.3
iter:  972  14:54:48     9730.00     -15.1
iter:  973  14:54:48     9740.00     -15.1
iter:  974  14:54:48     9750.00     -15.7
iter:  975  14:54:48     9760.00     -15.7
iter:  976  14:54:49     9770.00     -15.1
iter:  977  14:54:49     9780.00     -15.2
iter:  978  14:54:49     9790.00     -15.1
iter:  979  14:54:49     9800.00     -15.6
iter:  980  14:54:49     9810.00     -15.3
iter:  981  14:54:49     9820.00     -15.4
iter:  982  14:54:50     9830.00     -15.3
iter:  983  14:54:50     9840.00     -15.0
iter:  984  14:54:50     9850.00     -15.3
iter:  985  14:54:50     9860.00     -15.8
iter:  986  14:54:50     9870.00     -15.8
iter:  987  14:54:50     9880.00     -15.0
iter:  988  14:54:50     9890.00     -15.1
iter:  989  14:54:51     9900.00     -15.6
iter:  990  14:54:51     9910.00     -15.1
iter:  991  14:54:51     9920.00     -15.1
iter:  992  14:54:51     9930.00     -14.8
iter:  993  14:54:51     9940.00     -15.3
iter:  994  14:54:51     9950.00     -15.6
iter:  995  14:54:52     9960.00     -15.5
iter:  996  14:54:52     9970.00     -15.1
iter:  997  14:54:52     9980.00     -15.6
iter:  998  14:54:52     9990.00     -15.0
iter:  999  14:54:52    10000.00     -16.0
iter: 1000  14:54:52    10010.00     -15.3
iter: 1001  14:54:52    10020.00     -15.8
iter: 1002  14:54:53    10030.00     -14.9
iter: 1003  14:54:53    10040.00     -15.0
iter: 1004  14:54:53    10050.00     -15.1
iter: 1005  14:54:53    10060.00     -15.6
iter: 1006  14:54:53    10070.00     -15.5
iter: 1007  14:54:53    10080.00     -15.5
iter: 1008  14:54:54    10090.00     -15.6
iter: 1009  14:54:54    10100.00     -15.5
iter: 1010  14:54:54    10110.00     -15.1
iter: 1011  14:54:54    10120.00     -14.9
iter: 1012  14:54:54    10130.00     -15.1
iter: 1013  14:54:54    10140.00     -15.4
iter: 1014  14:54:54    10150.00     -14.9
iter: 1015  14:54:55    10160.00     -15.4
iter: 1016  14:54:55    10170.00     -15.4
iter: 1017  14:54:55    10180.00     -15.8
iter: 1018  14:54:55    10190.00     -15.4
iter: 1019  14:54:55    10200.00     -15.6
iter: 1020  14:54:55    10210.00     -14.9
iter: 1021  14:54:56    10220.00     -16.0
iter: 1022  14:54:56    10230.00     -15.0
iter: 1023  14:54:56    10240.00     -15.5
iter: 1024  14:54:56    10250.00     -15.8
iter: 1025  14:54:56    10260.00     -15.1
iter: 1026  14:54:56    10270.00     -15.6
iter: 1027  14:54:57    10280.00     -14.9
iter: 1028  14:54:57    10290.00     -15.3
iter: 1029  14:54:57    10300.00     -15.0
iter: 1030  14:54:57    10310.00     -15.3
iter: 1031  14:54:57    10320.00     -15.3
iter: 1032  14:54:57    10330.00     -15.0
iter: 1033  14:54:57    10340.00     -15.4
iter: 1034  14:54:58    10350.00     -15.0
iter: 1035  14:54:58    10360.00     -15.7
iter: 1036  14:54:58    10370.00     -15.2
iter: 1037  14:54:58    10380.00     -15.3
iter: 1038  14:54:58    10390.00     -16.0
iter: 1039  14:54:58    10400.00     -14.8
iter: 1040  14:54:59    10410.00     -15.1
iter: 1041  14:54:59    10420.00     -15.8
iter: 1042  14:54:59    10430.00     -15.4
iter: 1043  14:54:59    10440.00     -15.5
iter: 1044  14:54:59    10450.00     -15.4
iter: 1045  14:54:59    10460.00     -15.1
iter: 1046  14:54:59    10470.00     -15.0
iter: 1047  14:55:00    10480.00     -15.5
iter: 1048  14:55:00    10490.00     -15.3
iter: 1049  14:55:00    10500.00     -15.3
iter: 1050  14:55:00    10510.00     -15.3
iter: 1051  14:55:00    10520.00     -15.0
iter: 1052  14:55:00    10530.00     -15.3
iter: 1053  14:55:01    10540.00     -15.3
iter: 1054  14:55:01    10550.00     -15.1
iter: 1055  14:55:01    10560.00     -15.7
iter: 1056  14:55:01    10570.00     -16.0
iter: 1057  14:55:01    10580.00     -15.4
iter: 1058  14:55:01    10590.00     -15.0
iter: 1059  14:55:01    10600.00     -15.6
iter: 1060  14:55:02    10610.00     -15.4
iter: 1061  14:55:02    10620.00     -15.4
iter: 1062  14:55:02    10630.00     -15.8
iter: 1063  14:55:02    10640.00     -15.6
iter: 1064  14:55:02    10650.00     -15.4
iter: 1065  14:55:02    10660.00     -15.5
iter: 1066  14:55:03    10670.00     -15.2
iter: 1067  14:55:03    10680.00     -15.4
iter: 1068  14:55:03    10690.00     -15.2
iter: 1069  14:55:03    10700.00     -16.0
iter: 1070  14:55:03    10710.00     -15.4
iter: 1071  14:55:03    10720.00     -15.5
iter: 1072  14:55:03    10730.00     -15.7
iter: 1073  14:55:04    10740.00     -15.5
iter: 1074  14:55:04    10750.00     -14.9
iter: 1075  14:55:04    10760.00     -15.6
iter: 1076  14:55:04    10770.00     -15.3
iter: 1077  14:55:04    10780.00     -15.3
iter: 1078  14:55:04    10790.00     -15.1
iter: 1079  14:55:05    10800.00     -15.6
iter: 1080  14:55:05    10810.00     -15.0
iter: 1081  14:55:05    10820.00     -15.0
iter: 1082  14:55:05    10830.00     -15.0
iter: 1083  14:55:05    10840.00     -15.2
iter: 1084  14:55:05    10850.00     -15.5
iter: 1085  14:55:06    10860.00     -16.0
iter: 1086  14:55:06    10870.00     -14.9
iter: 1087  14:55:06    10880.00     -15.1
iter: 1088  14:55:06    10890.00     -14.8
iter: 1089  14:55:06    10900.00     -15.4
iter: 1090  14:55:06    10910.00     -15.8
iter: 1091  14:55:06    10920.00     -15.2
iter: 1092  14:55:07    10930.00     -15.0
iter: 1093  14:55:07    10940.00     -15.2
iter: 1094  14:55:07    10950.00     -15.5
iter: 1095  14:55:07    10960.00     -15.0
iter: 1096  14:55:07    10970.00     -15.0
iter: 1097  14:55:07    10980.00     -15.2
iter: 1098  14:55:08    10990.00     -14.9
iter: 1099  14:55:08    11000.00     -15.0
iter: 1100  14:55:08    11010.00     -15.3
iter: 1101  14:55:08    11020.00     -15.1
iter: 1102  14:55:08    11030.00     -15.7
iter: 1103  14:55:08    11040.00     -15.0
iter: 1104  14:55:08    11050.00     -15.1
iter: 1105  14:55:09    11060.00     -15.2
iter: 1106  14:55:09    11070.00     -15.3
iter: 1107  14:55:09    11080.00     -14.9
iter: 1108  14:55:09    11090.00     -15.1
iter: 1109  14:55:09    11100.00     -15.8
iter: 1110  14:55:09    11110.00     -15.7
iter: 1111  14:55:10    11120.00     -14.9
iter: 1112  14:55:10    11130.00     -15.1
iter: 1113  14:55:10    11140.00     -15.1
iter: 1114  14:55:10    11150.00     -14.9
iter: 1115  14:55:10    11160.00     -15.3
iter: 1116  14:55:10    11170.00     -15.1
iter: 1117  14:55:10    11180.00     -15.4
iter: 1118  14:55:11    11190.00     -15.3
iter: 1119  14:55:11    11200.00     -15.1
iter: 1120  14:55:11    11210.00     -15.2
iter: 1121  14:55:11    11220.00     -15.5
iter: 1122  14:55:11    11230.00     -14.9
iter: 1123  14:55:11    11240.00     -15.8
iter: 1124  14:55:12    11250.00     -15.4
iter: 1125  14:55:12    11260.00     -15.2
iter: 1126  14:55:12    11270.00     -16.0
iter: 1127  14:55:12    11280.00     -15.5
iter: 1128  14:55:12    11290.00     -15.5
iter: 1129  14:55:12    11300.00     -15.8
iter: 1130  14:55:12    11310.00     -15.5
iter: 1131  14:55:13    11320.00     -15.5
iter: 1132  14:55:13    11330.00     -15.5
iter: 1133  14:55:13    11340.00     -15.2
iter: 1134  14:55:13    11350.00     -15.8
iter: 1135  14:55:13    11360.00     -14.9
iter: 1136  14:55:13    11370.00     -15.5
iter: 1137  14:55:14    11380.00     -15.1
iter: 1138  14:55:14    11390.00     -15.4
iter: 1139  14:55:14    11400.00     -15.3
iter: 1140  14:55:14    11410.00     -14.9
iter: 1141  14:55:14    11420.00     -15.4
iter: 1142  14:55:14    11430.00     -15.4
iter: 1143  14:55:14    11440.00     -15.5
iter: 1144  14:55:15    11450.00     -15.3
iter: 1145  14:55:15    11460.00     -15.8
iter: 1146  14:55:15    11470.00     -15.0
iter: 1147  14:55:15    11480.00     -15.4
iter: 1148  14:55:15    11490.00     -15.2
iter: 1149  14:55:15    11500.00     -15.4
iter: 1150  14:55:16    11510.00     -15.7
iter: 1151  14:55:16    11520.00     -15.7
iter: 1152  14:55:16    11530.00     -15.2
iter: 1153  14:55:16    11540.00     -15.0
iter: 1154  14:55:16    11550.00     -15.2
iter: 1155  14:55:16    11560.00     -15.1
iter: 1156  14:55:17    11570.00     -15.2
iter: 1157  14:55:17    11580.00     -15.4
iter: 1158  14:55:17    11590.00     -15.4
iter: 1159  14:55:17    11600.00     -15.1
iter: 1160  14:55:17    11610.00     -15.0
iter: 1161  14:55:17    11620.00     -15.5
iter: 1162  14:55:17    11630.00     -15.5
iter: 1163  14:55:18    11640.00     -15.5
iter: 1164  14:55:18    11650.00     -15.0
iter: 1165  14:55:18    11660.00     -15.1
iter: 1166  14:55:18    11670.00     -15.8
iter: 1167  14:55:18    11680.00     -14.9
iter: 1168  14:55:18    11690.00     -15.1
iter: 1169  14:55:19    11700.00     -15.1
iter: 1170  14:55:19    11710.00     -16.0
iter: 1171  14:55:19    11720.00     -15.1
iter: 1172  14:55:19    11730.00     -15.7
iter: 1173  14:55:19    11740.00     -15.5
iter: 1174  14:55:19    11750.00     -15.6
iter: 1175  14:55:19    11760.00     -15.3
iter: 1176  14:55:20    11770.00     -15.3
iter: 1177  14:55:20    11780.00     -15.6
iter: 1178  14:55:20    11790.00     -15.1
iter: 1179  14:55:20    11800.00     -15.3
iter: 1180  14:55:20    11810.00     -15.1
iter: 1181  14:55:20    11820.00     -15.1
iter: 1182  14:55:21    11830.00     -15.4
iter: 1183  14:55:21    11840.00     -15.7
iter: 1184  14:55:21    11850.00     -15.4
iter: 1185  14:55:21    11860.00     -15.5
iter: 1186  14:55:21    11870.00     -16.0
iter: 1187  14:55:21    11880.00     -15.4
iter: 1188  14:55:21    11890.00     -15.2
iter: 1189  14:55:22    11900.00     -15.0
iter: 1190  14:55:22    11910.00     -15.7
iter: 1191  14:55:22    11920.00     -15.8
iter: 1192  14:55:22    11930.00     -15.5
iter: 1193  14:55:22    11940.00     -15.6
iter: 1194  14:55:22    11950.00     -15.3
iter: 1195  14:55:23    11960.00     -15.2
iter: 1196  14:55:23    11970.00     -15.5
iter: 1197  14:55:23    11980.00     -15.2
iter: 1198  14:55:23    11990.00     -15.7
iter: 1199  14:55:23    12000.00     -15.6
iter: 1200  14:55:23    12010.00     -15.5
iter: 1201  14:55:24    12020.00     -15.4
iter: 1202  14:55:24    12030.00     -15.2
iter: 1203  14:55:24    12040.00     -15.6
iter: 1204  14:55:24    12050.00     -15.1
iter: 1205  14:55:24    12060.00     -15.2
iter: 1206  14:55:24    12070.00     -14.9
iter: 1207  14:55:24    12080.00     -15.8
iter: 1208  14:55:25    12090.00     -15.8
iter: 1209  14:55:25    12100.00     -15.3
iter: 1210  14:55:25    12110.00     -15.3
iter: 1211  14:55:25    12120.00     -15.5
iter: 1212  14:55:25    12130.00     -15.7
iter: 1213  14:55:25    12140.00     -15.1
iter: 1214  14:55:26    12150.00     -15.8
iter: 1215  14:55:26    12160.00     -15.0
iter: 1216  14:55:26    12170.00     -15.2
iter: 1217  14:55:26    12180.00     -15.1
iter: 1218  14:55:26    12190.00     -15.5
iter: 1219  14:55:26    12200.00     -15.6
iter: 1220  14:55:27    12210.00     -15.8
iter: 1221  14:55:27    12220.00     -15.3
iter: 1222  14:55:27    12230.00     -15.1
iter: 1223  14:55:27    12240.00     -16.0
iter: 1224  14:55:27    12250.00     -15.8
iter: 1225  14:55:27    12260.00     -16.0
iter: 1226  14:55:27    12270.00     -15.7
iter: 1227  14:55:28    12280.00     -15.5
iter: 1228  14:55:28    12290.00     -15.2
iter: 1229  14:55:28    12300.00     -15.5
iter: 1230  14:55:28    12310.00     -14.9
iter: 1231  14:55:28    12320.00     -15.6
iter: 1232  14:55:28    12330.00     -15.1
iter: 1233  14:55:29    12340.00     -15.0
iter: 1234  14:55:29    12350.00     -15.3
iter: 1235  14:55:29    12360.00     -15.8
iter: 1236  14:55:29    12370.00     -15.0
iter: 1237  14:55:29    12380.00     -15.8
iter: 1238  14:55:29    12390.00     -15.2
iter: 1239  14:55:30    12400.00     -15.3
iter: 1240  14:55:30    12410.00     -16.0
iter: 1241  14:55:30    12420.00     -14.9
iter: 1242  14:55:30    12430.00     -15.2
iter: 1243  14:55:30    12440.00     -15.6
iter: 1244  14:55:30    12450.00     -15.5
iter: 1245  14:55:30    12460.00     -15.6
iter: 1246  14:55:31    12470.00     -16.0
iter: 1247  14:55:31    12480.00     -15.7
iter: 1248  14:55:31    12490.00     -15.2
iter: 1249  14:55:31    12500.00     -15.1
iter: 1250  14:55:31    12510.00     -15.7
iter: 1251  14:55:31    12520.00     -15.1
iter: 1252  14:55:32    12530.00     -15.6
iter: 1253  14:55:32    12540.00     -15.8
iter: 1254  14:55:32    12550.00     -15.2
iter: 1255  14:55:32    12560.00     -15.3
iter: 1256  14:55:32    12570.00     -15.5
iter: 1257  14:55:32    12580.00     -15.1
iter: 1258  14:55:33    12590.00     -15.8
iter: 1259  14:55:33    12600.00     -15.5
iter: 1260  14:55:33    12610.00     -15.0
iter: 1261  14:55:33    12620.00     -15.4
iter: 1262  14:55:33    12630.00     -15.1
iter: 1263  14:55:33    12640.00     -16.0
iter: 1264  14:55:33    12650.00     -15.1
iter: 1265  14:55:34    12660.00     -14.9
iter: 1266  14:55:34    12670.00     -14.9
iter: 1267  14:55:34    12680.00     -15.3
iter: 1268  14:55:34    12690.00     -15.5
iter: 1269  14:55:34    12700.00     -14.8
iter: 1270  14:55:34    12710.00     -15.3
iter: 1271  14:55:35    12720.00     -15.5
iter: 1272  14:55:35    12730.00     -15.3
iter: 1273  14:55:35    12740.00     -15.1
iter: 1274  14:55:35    12750.00     -14.8
iter: 1275  14:55:35    12760.00     -15.6
iter: 1276  14:55:35    12770.00     -15.4
iter: 1277  14:55:36    12780.00     -15.4
iter: 1278  14:55:36    12790.00     -15.1
iter: 1279  14:55:36    12800.00     -15.2
iter: 1280  14:55:36    12810.00     -15.5
iter: 1281  14:55:36    12820.00     -15.4
iter: 1282  14:55:36    12830.00     -15.3
iter: 1283  14:55:36    12840.00     -15.6
iter: 1284  14:55:37    12850.00     -15.1
iter: 1285  14:55:37    12860.00     -15.1
iter: 1286  14:55:37    12870.00     -15.3
iter: 1287  14:55:37    12880.00     -15.8
iter: 1288  14:55:37    12890.00     -15.6
iter: 1289  14:55:37    12900.00     -15.2
iter: 1290  14:55:38    12910.00     -15.1
iter: 1291  14:55:38    12920.00     -15.5
iter: 1292  14:55:38    12930.00     -15.2
iter: 1293  14:55:38    12940.00     -15.0
iter: 1294  14:55:38    12950.00     -15.3
iter: 1295  14:55:38    12960.00     -15.1
iter: 1296  14:55:39    12970.00     -15.6
iter: 1297  14:55:39    12980.00     -15.2
iter: 1298  14:55:39    12990.00     -15.4
iter: 1299  14:55:39    13000.00     -15.8
iter: 1300  14:55:39    13010.00     -14.8
iter: 1301  14:55:39    13020.00     -15.6
iter: 1302  14:55:39    13030.00     -15.3
iter: 1303  14:55:40    13040.00     -15.0
iter: 1304  14:55:40    13050.00     -15.1
iter: 1305  14:55:40    13060.00     -15.8
iter: 1306  14:55:40    13070.00     -15.8
iter: 1307  14:55:40    13080.00     -15.7
iter: 1308  14:55:40    13090.00     -15.1
iter: 1309  14:55:41    13100.00     -15.5
iter: 1310  14:55:41    13110.00     -15.2
iter: 1311  14:55:41    13120.00     -15.1
iter: 1312  14:55:41    13130.00     -16.0
iter: 1313  14:55:41    13140.00     -16.0
iter: 1314  14:55:41    13150.00     -15.2
iter: 1315  14:55:42    13160.00     -15.3
iter: 1316  14:55:42    13170.00     -16.0
iter: 1317  14:55:42    13180.00     -16.0
iter: 1318  14:55:42    13190.00     -15.6
iter: 1319  14:55:42    13200.00     -15.2
iter: 1320  14:55:42    13210.00     -15.4
iter: 1321  14:55:43    13220.00     -15.4
iter: 1322  14:55:43    13230.00     -15.0
iter: 1323  14:55:43    13240.00     -16.0
iter: 1324  14:55:43    13250.00     -15.1
iter: 1325  14:55:43    13260.00     -15.0
iter: 1326  14:55:43    13270.00     -15.3
iter: 1327  14:55:43    13280.00     -15.0
iter: 1328  14:55:44    13290.00     -15.3
iter: 1329  14:55:44    13300.00     -15.8
iter: 1330  14:55:44    13310.00     -15.0
iter: 1331  14:55:44    13320.00     -15.0
iter: 1332  14:55:44    13330.00     -15.1
iter: 1333  14:55:44    13340.00     -15.8
iter: 1334  14:55:45    13350.00     -15.5
iter: 1335  14:55:45    13360.00     -15.7
iter: 1336  14:55:45    13370.00     -16.0
iter: 1337  14:55:45    13380.00     -15.3
iter: 1338  14:55:45    13390.00     -15.5
iter: 1339  14:55:45    13400.00     -15.2
iter: 1340  14:55:45    13410.00     -15.4
iter: 1341  14:55:46    13420.00     -15.5
iter: 1342  14:55:46    13430.00     -15.1
iter: 1343  14:55:46    13440.00     -15.8
iter: 1344  14:55:46    13450.00     -15.3
iter: 1345  14:55:46    13460.00     -15.4
iter: 1346  14:55:46    13470.00     -15.7
iter: 1347  14:55:47    13480.00     -15.7
iter: 1348  14:55:47    13490.00     -15.6
iter: 1349  14:55:47    13500.00     -15.1
iter: 1350  14:55:47    13510.00     -15.4
iter: 1351  14:55:47    13520.00     -15.5
iter: 1352  14:55:47    13530.00     -15.6
iter: 1353  14:55:47    13540.00     -15.5
iter: 1354  14:55:48    13550.00     -15.1
iter: 1355  14:55:48    13560.00     -15.6
iter: 1356  14:55:48    13570.00     -15.7
iter: 1357  14:55:48    13580.00     -15.2
iter: 1358  14:55:48    13590.00     -15.1
iter: 1359  14:55:48    13600.00     -15.3
iter: 1360  14:55:49    13610.00     -15.0
iter: 1361  14:55:49    13620.00     -15.2
iter: 1362  14:55:49    13630.00     -15.0
iter: 1363  14:55:49    13640.00     -15.7
iter: 1364  14:55:49    13650.00     -15.7
iter: 1365  14:55:49    13660.00     -15.6
iter: 1366  14:55:50    13670.00     -16.0
iter: 1367  14:55:50    13680.00     -15.1
iter: 1368  14:55:50    13690.00     -14.8
iter: 1369  14:55:50    13700.00     -15.1
iter: 1370  14:55:50    13710.00     -15.5
iter: 1371  14:55:50    13720.00     -15.2
iter: 1372  14:55:50    13730.00     -15.1
iter: 1373  14:55:51    13740.00     -15.1
iter: 1374  14:55:51    13750.00     -15.4
iter: 1375  14:55:51    13760.00     -14.9
iter: 1376  14:55:51    13770.00     -14.8
iter: 1377  14:55:51    13780.00     -15.1
iter: 1378  14:55:51    13790.00     -15.3
iter: 1379  14:55:52    13800.00     -15.2
iter: 1380  14:55:52    13810.00     -15.3
iter: 1381  14:55:52    13820.00     -14.9
iter: 1382  14:55:52    13830.00     -15.8
iter: 1383  14:55:52    13840.00     -15.3
iter: 1384  14:55:52    13850.00     -15.5
iter: 1385  14:55:52    13860.00     -15.8
iter: 1386  14:55:53    13870.00     -15.0
iter: 1387  14:55:53    13880.00     -15.4
iter: 1388  14:55:53    13890.00     -15.4
iter: 1389  14:55:53    13900.00     -15.3
iter: 1390  14:55:53    13910.00     -15.0
iter: 1391  14:55:53    13920.00     -15.7
iter: 1392  14:55:54    13930.00     -15.5
iter: 1393  14:55:54    13940.00     -15.2
iter: 1394  14:55:54    13950.00     -15.8
iter: 1395  14:55:54    13960.00     -15.6
iter: 1396  14:55:54    13970.00     -15.3
iter: 1397  14:55:54    13980.00     -15.6
iter: 1398  14:55:54    13990.00     -15.8
iter: 1399  14:55:55    14000.00     -15.2
iter: 1400  14:55:55    14010.00     -16.0
iter: 1401  14:55:55    14020.00     -14.9
iter: 1402  14:55:55    14030.00     -15.6
iter: 1403  14:55:55    14040.00     -15.4
iter: 1404  14:55:55    14050.00     -15.1
iter: 1405  14:55:56    14060.00     -15.8
iter: 1406  14:55:56    14070.00     -15.0
iter: 1407  14:55:56    14080.00     -15.4
iter: 1408  14:55:56    14090.00     -15.8
iter: 1409  14:55:56    14100.00     -15.4
iter: 1410  14:55:56    14110.00     -16.0
iter: 1411  14:55:57    14120.00     -15.4
iter: 1412  14:55:57    14130.00     -15.6
iter: 1413  14:55:57    14140.00     -15.2
iter: 1414  14:55:57    14150.00     -14.8
iter: 1415  14:55:57    14160.00     -15.5
iter: 1416  14:55:57    14170.00     -15.4
iter: 1417  14:55:57    14180.00     -15.7
iter: 1418  14:55:58    14190.00     -15.6
iter: 1419  14:55:58    14200.00     -15.5
iter: 1420  14:55:58    14210.00     -15.1
iter: 1421  14:55:58    14220.00     -15.3
iter: 1422  14:55:58    14230.00     -15.1
iter: 1423  14:55:58    14240.00     -15.2
iter: 1424  14:55:59    14250.00     -15.1
iter: 1425  14:55:59    14260.00     -15.1
iter: 1426  14:55:59    14270.00     -15.4
iter: 1427  14:55:59    14280.00     -15.7
iter: 1428  14:55:59    14290.00     -15.7
iter: 1429  14:55:59    14300.00     -15.5
iter: 1430  14:56:00    14310.00     -15.4
iter: 1431  14:56:00    14320.00     -15.2
iter: 1432  14:56:00    14330.00     -15.7
iter: 1433  14:56:00    14340.00     -15.0
iter: 1434  14:56:00    14350.00     -15.6
iter: 1435  14:56:00    14360.00     -14.9
iter: 1436  14:56:00    14370.00     -15.1
iter: 1437  14:56:01    14380.00     -15.8
iter: 1438  14:56:01    14390.00     -15.0
iter: 1439  14:56:01    14400.00     -15.4
iter: 1440  14:56:01    14410.00     -15.4
iter: 1441  14:56:01    14420.00     -15.4
iter: 1442  14:56:01    14430.00     -15.1
iter: 1443  14:56:02    14440.00     -15.1
iter: 1444  14:56:02    14450.00     -15.2
iter: 1445  14:56:02    14460.00     -15.5
iter: 1446  14:56:02    14470.00     -15.6
iter: 1447  14:56:02    14480.00     -14.8
iter: 1448  14:56:02    14490.00     -15.4
iter: 1449  14:56:02    14500.00     -15.1
iter: 1450  14:56:03    14510.00     -15.5
iter: 1451  14:56:03    14520.00     -15.1
iter: 1452  14:56:03    14530.00     -15.1
iter: 1453  14:56:03    14540.00     -15.2
iter: 1454  14:56:03    14550.00     -15.4
iter: 1455  14:56:03    14560.00     -15.4
iter: 1456  14:56:04    14570.00     -15.4
iter: 1457  14:56:04    14580.00     -15.4
iter: 1458  14:56:04    14590.00     -15.8
iter: 1459  14:56:04    14600.00     -15.7
iter: 1460  14:56:04    14610.00     -15.6
iter: 1461  14:56:04    14620.00     -15.3
iter: 1462  14:56:05    14630.00     -16.0
iter: 1463  14:56:05    14640.00     -14.9
iter: 1464  14:56:05    14650.00     -14.9
iter: 1465  14:56:05    14660.00     -15.3
iter: 1466  14:56:05    14670.00     -15.5
iter: 1467  14:56:05    14680.00     -15.0
iter: 1468  14:56:05    14690.00     -15.6
iter: 1469  14:56:06    14700.00     -16.0
iter: 1470  14:56:06    14710.00     -15.6
iter: 1471  14:56:06    14720.00     -15.6
iter: 1472  14:56:06    14730.00     -15.6
iter: 1473  14:56:06    14740.00     -15.5
iter: 1474  14:56:06    14750.00     -15.5
iter: 1475  14:56:07    14760.00     -15.4
iter: 1476  14:56:07    14770.00     -15.2
iter: 1477  14:56:07    14780.00     -15.2
iter: 1478  14:56:07    14790.00     -15.2
iter: 1479  14:56:07    14800.00     -15.5
iter: 1480  14:56:07    14810.00     -15.4
iter: 1481  14:56:07    14820.00     -15.2
iter: 1482  14:56:08    14830.00     -15.3
iter: 1483  14:56:08    14840.00     -15.4
iter: 1484  14:56:08    14850.00     -16.0
iter: 1485  14:56:08    14860.00     -15.4
iter: 1486  14:56:08    14870.00     -14.9
iter: 1487  14:56:08    14880.00     -15.6
iter: 1488  14:56:09    14890.00     -15.7
iter: 1489  14:56:09    14900.00     -15.0
iter: 1490  14:56:09    14910.00     -15.4
iter: 1491  14:56:09    14920.00     -15.5
iter: 1492  14:56:09    14930.00     -15.2
iter: 1493  14:56:09    14940.00     -15.3
iter: 1494  14:56:09    14950.00     -15.2
iter: 1495  14:56:10    14960.00     -15.7
iter: 1496  14:56:10    14970.00     -15.0
iter: 1497  14:56:10    14980.00     -15.1
iter: 1498  14:56:10    14990.00     -15.8
iter: 1499  14:56:10    15000.00     -15.3
iter: 1500  14:56:10    15010.00     -15.2
iter: 1501  14:56:11    15020.00     -15.1
iter: 1502  14:56:11    15030.00     -15.4
iter: 1503  14:56:11    15040.00     -15.3
iter: 1504  14:56:11    15050.00     -15.4
iter: 1505  14:56:11    15060.00     -15.2
iter: 1506  14:56:11    15070.00     -15.3
iter: 1507  14:56:12    15080.00     -15.4
iter: 1508  14:56:12    15090.00     -16.0
iter: 1509  14:56:12    15100.00     -15.8
iter: 1510  14:56:12    15110.00     -15.3
iter: 1511  14:56:12    15120.00     -15.3
iter: 1512  14:56:12    15130.00     -15.5
iter: 1513  14:56:12    15140.00     -15.4
iter: 1514  14:56:13    15150.00     -15.2
iter: 1515  14:56:13    15160.00     -15.5
iter: 1516  14:56:13    15170.00     -15.2
iter: 1517  14:56:13    15180.00     -15.2
iter: 1518  14:56:13    15190.00     -15.0
iter: 1519  14:56:13    15200.00     -15.0
iter: 1520  14:56:14    15210.00     -15.8
iter: 1521  14:56:14    15220.00     -15.5
iter: 1522  14:56:14    15230.00     -15.1
iter: 1523  14:56:14    15240.00     -15.7
iter: 1524  14:56:14    15250.00     -15.1
iter: 1525  14:56:14    15260.00     -15.8
iter: 1526  14:56:15    15270.00     -15.5
iter: 1527  14:56:15    15280.00     -15.3
iter: 1528  14:56:15    15290.00     -15.1
iter: 1529  14:56:15    15300.00     -15.7
iter: 1530  14:56:15    15310.00     -14.9
iter: 1531  14:56:15    15320.00     -15.3
iter: 1532  14:56:15    15330.00     -15.1
iter: 1533  14:56:16    15340.00     -15.8
iter: 1534  14:56:16    15350.00     -16.0
iter: 1535  14:56:16    15360.00     -15.5
iter: 1536  14:56:16    15370.00     -15.4
iter: 1537  14:56:16    15380.00     -15.2
iter: 1538  14:56:16    15390.00     -15.2
iter: 1539  14:56:17    15400.00     -15.1
iter: 1540  14:56:17    15410.00     -15.0
iter: 1541  14:56:17    15420.00     -15.5
iter: 1542  14:56:17    15430.00     -15.3
iter: 1543  14:56:17    15440.00     -15.0
iter: 1544  14:56:17    15450.00     -15.5
iter: 1545  14:56:18    15460.00     -15.4
iter: 1546  14:56:18    15470.00     -15.0
iter: 1547  14:56:18    15480.00     -14.8
iter: 1548  14:56:18    15490.00     -15.0
iter: 1549  14:56:18    15500.00     -15.2
iter: 1550  14:56:18    15510.00     -16.0
iter: 1551  14:56:18    15520.00     -15.3
iter: 1552  14:56:19    15530.00     -15.1
iter: 1553  14:56:19    15540.00     -15.4
iter: 1554  14:56:19    15550.00     -16.0
iter: 1555  14:56:19    15560.00     -15.3
iter: 1556  14:56:19    15570.00     -15.4
iter: 1557  14:56:19    15580.00     -15.1
iter: 1558  14:56:20    15590.00     -15.2
iter: 1559  14:56:20    15600.00     -14.9
iter: 1560  14:56:20    15610.00     -15.7
iter: 1561  14:56:20    15620.00     -15.8
iter: 1562  14:56:20    15630.00     -15.3
iter: 1563  14:56:20    15640.00     -15.1
iter: 1564  14:56:20    15650.00     -15.5
iter: 1565  14:56:21    15660.00     -15.1
iter: 1566  14:56:21    15670.00     -15.1
iter: 1567  14:56:21    15680.00     -15.6
iter: 1568  14:56:21    15690.00     -15.6
iter: 1569  14:56:21    15700.00     -14.9
iter: 1570  14:56:21    15710.00     -15.5
iter: 1571  14:56:22    15720.00     -15.4
iter: 1572  14:56:22    15730.00     -15.3
iter: 1573  14:56:22    15740.00     -15.0
iter: 1574  14:56:22    15750.00     -16.0
iter: 1575  14:56:22    15760.00     -15.4
iter: 1576  14:56:22    15770.00     -15.6
iter: 1577  14:56:23    15780.00     -15.1
iter: 1578  14:56:23    15790.00     -15.7
iter: 1579  14:56:23    15800.00     -15.1
iter: 1580  14:56:23    15810.00     -16.0
iter: 1581  14:56:23    15820.00     -15.1
iter: 1582  14:56:23    15830.00     -15.1
iter: 1583  14:56:23    15840.00     -15.1
iter: 1584  14:56:24    15850.00     -15.1
iter: 1585  14:56:24    15860.00     -15.5
iter: 1586  14:56:24    15870.00     -16.0
iter: 1587  14:56:24    15880.00     -15.2
iter: 1588  14:56:24    15890.00     -15.0
iter: 1589  14:56:24    15900.00     -15.0
iter: 1590  14:56:25    15910.00     -15.7
iter: 1591  14:56:25    15920.00     -15.0
iter: 1592  14:56:25    15930.00     -15.4
iter: 1593  14:56:25    15940.00     -15.1
iter: 1594  14:56:25    15950.00     -15.2
iter: 1595  14:56:25    15960.00     -15.6
iter: 1596  14:56:26    15970.00     -15.8
iter: 1597  14:56:26    15980.00     -15.5
iter: 1598  14:56:26    15990.00     -15.3
iter: 1599  14:56:26    16000.00     -15.4
iter: 1600  14:56:26    16010.00     -15.1
iter: 1601  14:56:26    16020.00     -14.9
iter: 1602  14:56:27    16030.00     -15.7
iter: 1603  14:56:27    16040.00     -15.1
iter: 1604  14:56:27    16050.00     -15.6
iter: 1605  14:56:27    16060.00     -15.8
iter: 1606  14:56:27    16070.00     -15.0
iter: 1607  14:56:27    16080.00     -15.3
iter: 1608  14:56:27    16090.00     -15.7
iter: 1609  14:56:28    16100.00     -15.1
iter: 1610  14:56:28    16110.00     -15.2
iter: 1611  14:56:28    16120.00     -15.4
iter: 1612  14:56:28    16130.00     -15.2
iter: 1613  14:56:28    16140.00     -15.8
iter: 1614  14:56:28    16150.00     -15.2
iter: 1615  14:56:29    16160.00     -15.8
iter: 1616  14:56:29    16170.00     -15.8
iter: 1617  14:56:29    16180.00     -15.3
iter: 1618  14:56:29    16190.00     -15.1
iter: 1619  14:56:29    16200.00     -15.2
iter: 1620  14:56:29    16210.00     -15.4
iter: 1621  14:56:30    16220.00     -15.1
iter: 1622  14:56:30    16230.00     -15.4
iter: 1623  14:56:30    16240.00     -15.5
iter: 1624  14:56:30    16250.00     -14.8
iter: 1625  14:56:30    16260.00     -14.8
iter: 1626  14:56:30    16270.00     -16.0
iter: 1627  14:56:31    16280.00     -15.4
iter: 1628  14:56:31    16290.00     -15.4
iter: 1629  14:56:31    16300.00     -15.2
iter: 1630  14:56:31    16310.00     -15.2
iter: 1631  14:56:31    16320.00     -15.2
iter: 1632  14:56:31    16330.00     -15.2
iter: 1633  14:56:31    16340.00     -15.3
iter: 1634  14:56:32    16350.00     -15.1
iter: 1635  14:56:32    16360.00     -15.7
iter: 1636  14:56:32    16370.00     -15.1
iter: 1637  14:56:32    16380.00     -15.0
iter: 1638  14:56:32    16390.00     -15.4
iter: 1639  14:56:32    16400.00     -15.2
iter: 1640  14:56:33    16410.00     -15.3
iter: 1641  14:56:33    16420.00     -15.0
iter: 1642  14:56:33    16430.00     -15.7
iter: 1643  14:56:33    16440.00     -15.4
iter: 1644  14:56:33    16450.00     -15.7
iter: 1645  14:56:33    16460.00     -15.1
iter: 1646  14:56:33    16470.00     -15.1
iter: 1647  14:56:34    16480.00     -16.0
iter: 1648  14:56:34    16490.00     -15.0
iter: 1649  14:56:34    16500.00     -15.5
iter: 1650  14:56:34    16510.00     -15.5
iter: 1651  14:56:34    16520.00     -15.2
iter: 1652  14:56:34    16530.00     -15.5
iter: 1653  14:56:35    16540.00     -15.3
iter: 1654  14:56:35    16550.00     -15.6
iter: 1655  14:56:35    16560.00     -15.0
iter: 1656  14:56:35    16570.00     -15.0
iter: 1657  14:56:35    16580.00     -15.6
iter: 1658  14:56:35    16590.00     -15.7
iter: 1659  14:56:36    16600.00     -15.3
iter: 1660  14:56:36    16610.00     -15.4
iter: 1661  14:56:36    16620.00     -15.6
iter: 1662  14:56:36    16630.00     -15.3
iter: 1663  14:56:36    16640.00     -15.5
iter: 1664  14:56:36    16650.00     -15.3
iter: 1665  14:56:36    16660.00     -15.0
iter: 1666  14:56:37    16670.00     -14.9
iter: 1667  14:56:37    16680.00     -15.2
iter: 1668  14:56:37    16690.00     -14.8
iter: 1669  14:56:37    16700.00     -15.4
iter: 1670  14:56:37    16710.00     -15.1
iter: 1671  14:56:38    16720.00     -15.5
iter: 1672  14:56:38    16730.00     -15.0
iter: 1673  14:56:38    16740.00     -15.8
iter: 1674  14:56:38    16750.00     -15.3
iter: 1675  14:56:38    16760.00     -15.8
iter: 1676  14:56:38    16770.00     -14.9
iter: 1677  14:56:38    16780.00     -15.7
iter: 1678  14:56:39    16790.00     -15.1
iter: 1679  14:56:39    16800.00     -15.4
iter: 1680  14:56:39    16810.00     -15.1
iter: 1681  14:56:39    16820.00     -15.1
iter: 1682  14:56:39    16830.00     -14.9
iter: 1683  14:56:39    16840.00     -15.1
iter: 1684  14:56:40    16850.00     -14.9
iter: 1685  14:56:40    16860.00     -15.2
iter: 1686  14:56:40    16870.00     -15.4
iter: 1687  14:56:40    16880.00     -15.3
iter: 1688  14:56:40    16890.00     -15.0
iter: 1689  14:56:40    16900.00     -15.7
iter: 1690  14:56:41    16910.00     -15.3
iter: 1691  14:56:41    16920.00     -15.4
iter: 1692  14:56:41    16930.00     -15.5
iter: 1693  14:56:41    16940.00     -14.9
iter: 1694  14:56:41    16950.00     -15.6
iter: 1695  14:56:41    16960.00     -15.3
iter: 1696  14:56:41    16970.00     -15.2
iter: 1697  14:56:42    16980.00     -15.5
iter: 1698  14:56:42    16990.00     -15.6
iter: 1699  14:56:42    17000.00     -15.8
iter: 1700  14:56:42    17010.00     -15.5
iter: 1701  14:56:42    17020.00     -14.9
iter: 1702  14:56:42    17030.00     -15.4
iter: 1703  14:56:43    17040.00     -15.0
iter: 1704  14:56:43    17050.00     -15.2
iter: 1705  14:56:43    17060.00     -15.0
iter: 1706  14:56:43    17070.00     -16.0
iter: 1707  14:56:43    17080.00     -15.7
iter: 1708  14:56:43    17090.00     -15.2
iter: 1709  14:56:44    17100.00     -15.5
iter: 1710  14:56:44    17110.00     -14.9
iter: 1711  14:56:44    17120.00     -15.1
iter: 1712  14:56:44    17130.00     -15.4
iter: 1713  14:56:44    17140.00     -15.7
iter: 1714  14:56:44    17150.00     -15.2
iter: 1715  14:56:44    17160.00     -15.5
iter: 1716  14:56:45    17170.00     -16.0
iter: 1717  14:56:45    17180.00     -15.1
iter: 1718  14:56:45    17190.00     -15.4
iter: 1719  14:56:45    17200.00     -15.6
iter: 1720  14:56:45    17210.00     -15.3
iter: 1721  14:56:45    17220.00     -15.6
iter: 1722  14:56:46    17230.00     -15.3
iter: 1723  14:56:46    17240.00     -16.0
iter: 1724  14:56:46    17250.00     -15.1
iter: 1725  14:56:46    17260.00     -15.6
iter: 1726  14:56:46    17270.00     -15.5
[...]
iter: 2687  14:59:16    26880.00     -15.1
iter: 2688  14:59:16    26890.00     -14.7
iter: 2689  14:59:17    26900.00     -15.3
iter: 2690  14:59:17    26910.00     -15.3
iter: 2691  14:59:17    26920.00     -15.4
iter: 2692  14:59:17    26930.00     -15.0
iter: 2693  14:59:17    26940.00     -15.4
iter: 2694  14:59:17    26950.00     -15.4
iter: 2695  14:59:17    26960.00     -16.0
iter: 2696  14:59:18    26970.00     -15.4
iter: 2697  14:59:18    26980.00     -15.4
iter: 2698  14:59:18    26990.00     -15.7
iter: 2699  14:59:18    27000.00     -15.8
iter: 2700  14:59:18    27010.00     -15.1
iter: 2701  14:59:18    27020.00     -15.5
iter: 2702  14:59:19    27030.00     -15.1
iter: 2703  14:59:19    27040.00     -15.8
iter: 2704  14:59:19    27050.00     -15.3
iter: 2705  14:59:19    27060.00     -15.5
iter: 2706  14:59:19    27070.00     -15.4
iter: 2707  14:59:19    27080.00     -15.3
iter: 2708  14:59:19    27090.00     -15.4
iter: 2709  14:59:20    27100.00     -15.6
iter: 2710  14:59:20    27110.00     -15.8
iter: 2711  14:59:20    27120.00     -15.2
iter: 2712  14:59:20    27130.00     -15.1
iter: 2713  14:59:20    27140.00     -15.3
iter: 2714  14:59:20    27150.00     -15.7
iter: 2715  14:59:21    27160.00     -15.0
iter: 2716  14:59:21    27170.00     -15.2
iter: 2717  14:59:21    27180.00     -15.3
iter: 2718  14:59:21    27190.00     -16.0
iter: 2719  14:59:21    27200.00     -15.4
iter: 2720  14:59:21    27210.00     -15.5
iter: 2721  14:59:21    27220.00     -15.4
iter: 2722  14:59:22    27230.00     -15.5
iter: 2723  14:59:22    27240.00     -15.4
iter: 2724  14:59:22    27250.00     -14.9
iter: 2725  14:59:22    27260.00     -15.5
iter: 2726  14:59:22    27270.00     -15.5
iter: 2727  14:59:22    27280.00     -15.3
iter: 2728  14:59:23    27290.00     -15.6
iter: 2729  14:59:23    27300.00     -15.1
iter: 2730  14:59:23    27310.00     -15.2
iter: 2731  14:59:23    27320.00     -14.9
iter: 2732  14:59:23    27330.00     -15.0
iter: 2733  14:59:23    27340.00     -15.2
iter: 2734  14:59:23    27350.00     -15.8
iter: 2735  14:59:24    27360.00     -15.1
iter: 2736  14:59:24    27370.00     -14.8
iter: 2737  14:59:24    27380.00     -15.6
iter: 2738  14:59:24    27390.00     -15.2
iter: 2739  14:59:24    27400.00     -15.2
iter: 2740  14:59:24    27410.00     -15.0
iter: 2741  14:59:25    27420.00     -15.4
iter: 2742  14:59:25    27430.00     -15.4
iter: 2743  14:59:25    27440.00     -15.8
iter: 2744  14:59:25    27450.00     -15.1
iter: 2745  14:59:25    27460.00     -15.4
iter: 2746  14:59:26    27470.00     -14.9
iter: 2747  14:59:26    27480.00     -14.8
iter: 2748  14:59:26    27490.00     -15.0
iter: 2749  14:59:26    27500.00     -15.3
iter: 2750  14:59:26    27510.00     -15.4
iter: 2751  14:59:26    27520.00     -15.2
iter: 2752  14:59:26    27530.00     -15.8
iter: 2753  14:59:27    27540.00     -15.0
iter: 2754  14:59:27    27550.00     -15.1
iter: 2755  14:59:27    27560.00     -14.8
iter: 2756  14:59:27    27570.00     -15.4
iter: 2757  14:59:27    27580.00     -15.4
iter: 2758  14:59:27    27590.00     -15.1
iter: 2759  14:59:28    27600.00     -15.7
iter: 2760  14:59:28    27610.00     -15.3
iter: 2761  14:59:28    27620.00     -15.1
iter: 2762  14:59:28    27630.00     -15.8
iter: 2763  14:59:28    27640.00     -15.6
iter: 2764  14:59:28    27650.00     -15.1
iter: 2765  14:59:29    27660.00     -15.2
iter: 2766  14:59:29    27670.00     -15.0
iter: 2767  14:59:29    27680.00     -15.8
iter: 2768  14:59:29    27690.00     -15.2
iter: 2769  14:59:29    27700.00     -15.3
iter: 2770  14:59:29    27710.00     -15.3
iter: 2771  14:59:30    27720.00     -15.0
iter: 2772  14:59:30    27730.00     -15.2
iter: 2773  14:59:30    27740.00     -15.1
iter: 2774  14:59:30    27750.00     -15.4
iter: 2775  14:59:30    27760.00     -15.7
iter: 2776  14:59:30    27770.00     -15.0
iter: 2777  14:59:30    27780.00     -15.2
iter: 2778  14:59:31    27790.00     -15.0
iter: 2779  14:59:31    27800.00     -15.3
iter: 2780  14:59:31    27810.00     -15.3
iter: 2781  14:59:31    27820.00     -15.6
iter: 2782  14:59:31    27830.00     -15.3
iter: 2783  14:59:31    27840.00     -15.6
iter: 2784  14:59:32    27850.00     -15.8
iter: 2785  14:59:32    27860.00     -15.7
iter: 2786  14:59:32    27870.00     -14.8
iter: 2787  14:59:32    27880.00     -15.1
iter: 2788  14:59:32    27890.00     -15.6
iter: 2789  14:59:32    27900.00     -15.1
iter: 2790  14:59:33    27910.00     -15.6
iter: 2791  14:59:33    27920.00     -15.8
iter: 2792  14:59:33    27930.00     -15.3
iter: 2793  14:59:33    27940.00     -15.4
iter: 2794  14:59:33    27950.00     -15.8
iter: 2795  14:59:33    27960.00     -15.8
iter: 2796  14:59:34    27970.00     -16.0
iter: 2797  14:59:34    27980.00     -15.0
iter: 2798  14:59:34    27990.00     -15.0
iter: 2799  14:59:34    28000.00     -14.9
iter: 2800  14:59:34    28010.00     -15.2
iter: 2801  14:59:34    28020.00     -16.0
iter: 2802  14:59:34    28030.00     -15.1
iter: 2803  14:59:35    28040.00     -15.0
iter: 2804  14:59:35    28050.00     -15.0
iter: 2805  14:59:35    28060.00     -15.2
iter: 2806  14:59:35    28070.00     -15.5
iter: 2807  14:59:35    28080.00     -15.1
iter: 2808  14:59:35    28090.00     -15.1
iter: 2809  14:59:36    28100.00     -15.3
iter: 2810  14:59:36    28110.00     -15.1
iter: 2811  14:59:36    28120.00     -15.1
iter: 2812  14:59:36    28130.00     -15.0
iter: 2813  14:59:36    28140.00     -15.1
iter: 2814  14:59:36    28150.00     -15.3
iter: 2815  14:59:37    28160.00     -15.7
iter: 2816  14:59:37    28170.00     -15.3
iter: 2817  14:59:37    28180.00     -15.5
iter: 2818  14:59:37    28190.00     -15.5
iter: 2819  14:59:37    28200.00     -15.5
iter: 2820  14:59:37    28210.00     -15.2
iter: 2821  14:59:37    28220.00     -15.6
iter: 2822  14:59:38    28230.00     -15.4
iter: 2823  14:59:38    28240.00     -15.6
iter: 2824  14:59:38    28250.00     -15.1
iter: 2825  14:59:38    28260.00     -15.7
iter: 2826  14:59:38    28270.00     -14.9
iter: 2827  14:59:38    28280.00     -15.4
iter: 2828  14:59:39    28290.00     -15.7
iter: 2829  14:59:39    28300.00     -15.5
iter: 2830  14:59:39    28310.00     -15.3
iter: 2831  14:59:39    28320.00     -15.8
iter: 2832  14:59:39    28330.00     -15.4
iter: 2833  14:59:39    28340.00     -15.6
iter: 2834  14:59:39    28350.00     -15.1
iter: 2835  14:59:40    28360.00     -15.4
iter: 2836  14:59:40    28370.00     -15.3
iter: 2837  14:59:40    28380.00     -15.3
iter: 2838  14:59:40    28390.00     -15.7
iter: 2839  14:59:40    28400.00     -15.3
iter: 2840  14:59:40    28410.00     -15.3
iter: 2841  14:59:41    28420.00     -15.5
iter: 2842  14:59:41    28430.00     -15.8
iter: 2843  14:59:41    28440.00     -16.0
iter: 2844  14:59:41    28450.00     -14.9
iter: 2845  14:59:41    28460.00     -15.1
iter: 2846  14:59:41    28470.00     -14.8
iter: 2847  14:59:41    28480.00     -15.3
iter: 2848  14:59:42    28490.00     -15.3
iter: 2849  14:59:42    28500.00     -16.0
iter: 2850  14:59:42    28510.00     -15.5
iter: 2851  14:59:42    28520.00     -15.2
iter: 2852  14:59:42    28530.00     -15.6
iter: 2853  14:59:42    28540.00     -14.9
iter: 2854  14:59:43    28550.00     -15.7
iter: 2855  14:59:43    28560.00     -15.1
iter: 2856  14:59:43    28570.00     -16.0
iter: 2857  14:59:43    28580.00     -15.5
iter: 2858  14:59:43    28590.00     -15.5
iter: 2859  14:59:43    28600.00     -15.4
iter: 2860  14:59:43    28610.00     -15.4
iter: 2861  14:59:44    28620.00     -15.2
iter: 2862  14:59:44    28630.00     -15.0
iter: 2863  14:59:44    28640.00     -15.3
iter: 2864  14:59:44    28650.00     -15.0
iter: 2865  14:59:44    28660.00     -15.4
iter: 2866  14:59:44    28670.00     -15.6
iter: 2867  14:59:45    28680.00     -15.6
iter: 2868  14:59:45    28690.00     -14.9
iter: 2869  14:59:45    28700.00     -15.3
iter: 2870  14:59:45    28710.00     -15.2
iter: 2871  14:59:45    28720.00     -15.1
iter: 2872  14:59:45    28730.00     -15.2
iter: 2873  14:59:45    28740.00     -15.0
iter: 2874  14:59:46    28750.00     -15.1
iter: 2875  14:59:46    28760.00     -15.0
iter: 2876  14:59:46    28770.00     -15.1
iter: 2877  14:59:46    28780.00     -15.1
iter: 2878  14:59:46    28790.00     -15.5
iter: 2879  14:59:46    28800.00     -15.8
iter: 2880  14:59:47    28810.00     -15.6
iter: 2881  14:59:47    28820.00     -15.5
iter: 2882  14:59:47    28830.00     -15.2
iter: 2883  14:59:47    28840.00     -15.1
iter: 2884  14:59:47    28850.00     -15.1
iter: 2885  14:59:47    28860.00     -15.4
iter: 2886  14:59:47    28870.00     -15.6
iter: 2887  14:59:48    28880.00     -15.1
iter: 2888  14:59:48    28890.00     -15.0
iter: 2889  14:59:48    28900.00     -15.1
iter: 2890  14:59:48    28910.00     -15.7
iter: 2891  14:59:48    28920.00     -15.4
iter: 2892  14:59:48    28930.00     -15.4
iter: 2893  14:59:49    28940.00     -15.5
iter: 2894  14:59:49    28950.00     -15.6
iter: 2895  14:59:49    28960.00     -14.9
iter: 2896  14:59:49    28970.00     -15.1
iter: 2897  14:59:49    28980.00     -15.3
iter: 2898  14:59:49    28990.00     -15.3
iter: 2899  14:59:50    29000.00     -16.0
iter: 2900  14:59:50    29010.00     -15.2
iter: 2901  14:59:50    29020.00     -15.1
iter: 2902  14:59:50    29030.00     -15.0
iter: 2903  14:59:50    29040.00     -15.4
iter: 2904  14:59:50    29050.00     -15.3
iter: 2905  14:59:50    29060.00     -14.8
iter: 2906  14:59:51    29070.00     -15.0
iter: 2907  14:59:51    29080.00     -15.6
iter: 2908  14:59:51    29090.00     -15.6
iter: 2909  14:59:51    29100.00     -15.1
iter: 2910  14:59:51    29110.00     -15.3
iter: 2911  14:59:51    29120.00     -15.1
iter: 2912  14:59:52    29130.00     -15.2
iter: 2913  14:59:52    29140.00     -15.2
iter: 2914  14:59:52    29150.00     -15.5
iter: 2915  14:59:52    29160.00     -15.3
iter: 2916  14:59:52    29170.00     -15.3
iter: 2917  14:59:52    29180.00     -15.7
iter: 2918  14:59:53    29190.00     -15.7
iter: 2919  14:59:53    29200.00     -15.6
iter: 2920  14:59:53    29210.00     -15.2
iter: 2921  14:59:53    29220.00     -15.8
iter: 2922  14:59:53    29230.00     -15.1
iter: 2923  14:59:53    29240.00     -15.8
iter: 2924  14:59:54    29250.00     -15.3
iter: 2925  14:59:54    29260.00     -15.4
iter: 2926  14:59:54    29270.00     -15.3
iter: 2927  14:59:54    29280.00     -15.3
iter: 2928  14:59:54    29290.00     -15.2
iter: 2929  14:59:54    29300.00     -15.0
iter: 2930  14:59:54    29310.00     -15.3
iter: 2931  14:59:55    29320.00     -15.1
iter: 2932  14:59:55    29330.00     -15.5
iter: 2933  14:59:55    29340.00     -15.8
iter: 2934  14:59:55    29350.00     -15.1
iter: 2935  14:59:55    29360.00     -15.2
iter: 2936  14:59:55    29370.00     -15.5
iter: 2937  14:59:56    29380.00     -15.2
iter: 2938  14:59:56    29390.00     -15.3
iter: 2939  14:59:56    29400.00     -14.9
iter: 2940  14:59:56    29410.00     -15.5
iter: 2941  14:59:56    29420.00     -15.2
iter: 2942  14:59:56    29430.00     -15.8
iter: 2943  14:59:56    29440.00     -15.3
iter: 2944  14:59:57    29450.00     -15.4
iter: 2945  14:59:57    29460.00     -15.3
iter: 2946  14:59:57    29470.00     -15.1
iter: 2947  14:59:57    29480.00     -15.2
iter: 2948  14:59:57    29490.00     -15.0
iter: 2949  14:59:57    29500.00     -15.7
iter: 2950  14:59:58    29510.00     -15.4
iter: 2951  14:59:58    29520.00     -15.4
iter: 2952  14:59:58    29530.00     -15.4
iter: 2953  14:59:58    29540.00     -15.1
iter: 2954  14:59:58    29550.00     -15.1
iter: 2955  14:59:58    29560.00     -15.0
iter: 2956  14:59:58    29570.00     -15.3
iter: 2957  14:59:59    29580.00     -15.8
iter: 2958  14:59:59    29590.00     -15.1
iter: 2959  14:59:59    29600.00     -15.1
iter: 2960  14:59:59    29610.00     -15.2
iter: 2961  14:59:59    29620.00     -15.5
iter: 2962  14:59:59    29630.00     -15.6
iter: 2963  15:00:00    29640.00     -15.3
iter: 2964  15:00:00    29650.00     -15.2
iter: 2965  15:00:00    29660.00     -15.1
iter: 2966  15:00:00    29670.00     -15.6
iter: 2967  15:00:00    29680.00     -15.7
iter: 2968  15:00:00    29690.00     -15.5
iter: 2969  15:00:00    29700.00     -15.3
iter: 2970  15:00:01    29710.00     -15.2
iter: 2971  15:00:01    29720.00     -14.8
iter: 2972  15:00:01    29730.00     -16.0
iter: 2973  15:00:01    29740.00     -15.4
iter: 2974  15:00:01    29750.00     -15.4
iter: 2975  15:00:01    29760.00     -15.4
iter: 2976  15:00:02    29770.00     -15.4
iter: 2977  15:00:02    29780.00     -15.7
iter: 2978  15:00:02    29790.00     -14.9
iter: 2979  15:00:02    29800.00     -15.2
iter: 2980  15:00:02    29810.00     -15.8
iter: 2981  15:00:02    29820.00     -14.9
iter: 2982  15:00:02    29830.00     -15.3
iter: 2983  15:00:03    29840.00     -15.6
iter: 2984  15:00:03    29850.00     -15.6
iter: 2985  15:00:03    29860.00     -15.1
iter: 2986  15:00:03    29870.00     -15.4
iter: 2987  15:00:03    29880.00     -15.5
iter: 2988  15:00:03    29890.00     -15.4
iter: 2989  15:00:04    29900.00     -15.7
iter: 2990  15:00:04    29910.00     -15.8
iter: 2991  15:00:04    29920.00     -15.3
iter: 2992  15:00:04    29930.00     -15.4
iter: 2993  15:00:04    29940.00     -15.1
iter: 2994  15:00:04    29950.00     -15.4
iter: 2995  15:00:05    29960.00     -16.0
iter: 2996  15:00:05    29970.00     -15.4
iter: 2997  15:00:05    29980.00     -15.7
iter: 2998  15:00:05    29990.00     -15.1
iter: 2999  15:00:05    30000.00     -15.3
Writing to /home/huma/repo/litesoph/example/Na2/Pulse/tdpulse.gpw (mode='all')

Timing:                                incl.     excl.
-------------------------------------------------------------
Basic WFS set positions:               0.000     0.000   0.0% |
 Redistribute:                         0.000     0.000   0.0% |
Basis functions set positions:         0.002     0.002   0.0% |
Initialize TDDFT:                      0.090     0.000   0.0% |
 DipoleMomentWriter update:            0.001     0.001   0.0% |
 Initialize TDDFT Hamiltonian:         0.089     0.019   0.0% |
  DenseAtomicCorrection:               0.000     0.000   0.0% |
  Distribute overlap matrix:           0.005     0.005   0.0% |
  Potential matrix:                    0.002     0.002   0.0% |
  Sum over cells:                      0.000     0.000   0.0% |
  Update TDDFT Hamiltonian:            0.063     0.000   0.0% |
   Density:                            0.006     0.000   0.0% |
    Atomic density matrices:           0.003     0.003   0.0% |
    Mix:                               0.002     0.002   0.0% |
    Multipole moments:                 0.000     0.000   0.0% |
    Normalize:                         0.000     0.000   0.0% |
    Pseudo density:                    0.002     0.000   0.0% |
     Calculate density matrix:         0.000     0.000   0.0% |
     Construct density:                0.002     0.002   0.0% |
     Symmetrize density:               0.000     0.000   0.0% |
   Hamiltonian:                        0.057     0.000   0.0% |
    Atomic:                            0.000     0.000   0.0% |
     XC Correction:                    0.000     0.000   0.0% |
    Calculate atomic Hamiltonians:     0.000     0.000   0.0% |
    Communicate:                       0.011     0.011   0.0% |
    Hartree integrate/restrict:        0.002     0.002   0.0% |
    Poisson:                           0.026     0.001   0.0% |
     Communicate from 1D:              0.005     0.005   0.0% |
     Communicate from 2D:              0.005     0.005   0.0% |
     Communicate to 1D:                0.005     0.005   0.0% |
     Communicate to 2D:                0.005     0.005   0.0% |
     FFT 1D:                           0.002     0.002   0.0% |
     FFT 2D:                           0.003     0.003   0.0% |
    XC 3D grid:                        0.016     0.016   0.0% |
    vbar:                              0.001     0.001   0.0% |
   Update projectors:                  0.000     0.000   0.0% |
 TDDFTLogger update:                   0.000     0.000   0.0% |
LCAO WFS Initialize:                   0.060     0.002   0.0% |
 Hamiltonian:                          0.058     0.000   0.0% |
  Atomic:                              0.000     0.000   0.0% |
   XC Correction:                      0.000     0.000   0.0% |
  Calculate atomic Hamiltonians:       0.000     0.000   0.0% |
  Communicate:                         0.011     0.011   0.0% |
  Hartree integrate/restrict:          0.002     0.002   0.0% |
  Poisson:                             0.028     0.001   0.0% |
   Communicate from 1D:                0.006     0.006   0.0% |
   Communicate from 2D:                0.005     0.005   0.0% |
   Communicate to 1D:                  0.006     0.006   0.0% |
   Communicate to 2D:                  0.005     0.005   0.0% |
   FFT 1D:                             0.002     0.002   0.0% |
   FFT 2D:                             0.003     0.003   0.0% |
  XC 3D grid:                          0.016     0.016   0.0% |
  vbar:                                0.001     0.001   0.0% |
P tci:                                 0.000     0.000   0.0% |
Propagate:                           470.107     0.236   0.1% |
 Calculate H_MM:                      44.190     0.362   0.1% |
  DenseAtomicCorrection:               0.103     0.103   0.0% |
  Distribute overlap matrix:          29.674    29.674   6.3% |--|
  Potential matrix:                   13.939    13.939   3.0% ||
  Sum over cells:                      0.112     0.112   0.0% |
 DipoleMomentWriter update:            1.953     1.953   0.4% |
 Linear solve:                         0.691     0.691   0.1% |
 TDDFTLogger update:                   0.279     0.279   0.1% |
 Update TDDFT Hamiltonian:           422.757     0.099   0.0% |
  Density:                            43.106     0.070   0.0% |
   Atomic density matrices:           19.882    19.882   4.2% |-|
   Mix:                               11.505    11.505   2.4% ||
   Multipole moments:                  0.794     0.794   0.2% |
   Normalize:                          0.310     0.310   0.1% |
   Pseudo density:                    10.545     0.376   0.1% |
    Calculate density matrix:          0.166     0.166   0.0% |
    Construct density:                 9.953     9.953   2.1% ||
    Symmetrize density:                0.051     0.051   0.0% |
  Hamiltonian:                       379.496     0.459   0.1% |
   Atomic:                             0.973     0.957   0.2% |
    XC Correction:                     0.016     0.016   0.0% |
   Calculate atomic Hamiltonians:      1.790     1.790   0.4% |
   Communicate:                       72.651    72.651  15.4% |-----|
   Hartree integrate/restrict:        14.315    14.315   3.0% ||
   Poisson:                          177.322     6.782   1.4% ||
    Communicate from 1D:              35.394    35.394   7.5% |--|
    Communicate from 2D:              36.284    36.284   7.7% |--|
    Communicate to 1D:                34.344    34.344   7.3% |--|
    Communicate to 2D:                34.756    34.756   7.4% |--|
    FFT 1D:                           10.612    10.612   2.3% ||
    FFT 2D:                           19.150    19.150   4.1% |-|
   XC 3D grid:                       107.931   107.931  22.9% |--------|
   vbar:                               4.055     4.055   0.9% |
  Update projectors:                   0.056     0.056   0.0% |
Redistribute:                          0.000     0.000   0.0% |
ST tci:                                0.001     0.001   0.0% |
Set symmetry:                          0.001     0.001   0.0% |
TCI: Evaluate splines:                 0.084     0.084   0.0% |
mktci:                                 0.001     0.001   0.0% |
Other:                                 0.280     0.280   0.1% |
-------------------------------------------------------------
Total:                                         470.625 100.0%

Memory usage: 123.18 MiB
Date: Mon Dec 27 15:00:05 2021
