
  ___ ___ ___ _ _ _  
 |   |   |_  | | | | 
 | | | | | . | | | | 
 |__ |  _|___|_____|  20.10.0
 |___|_|             

User:   huma@hartree
Date:   Mon Dec 27 13:53:19 2021
Arch:   x86_64
Pid:    7626
Python: 3.8.8
gpaw:   /home/huma/anaconda3/lib/python3.8/site-packages/gpaw
_gpaw:  /home/huma/anaconda3/lib/python3.8/site-packages/
        _gpaw.cpython-38-x86_64-linux-gnu.so
ase:    /home/huma/anaconda3/lib/python3.8/site-packages/ase (version 3.22.0)
numpy:  /home/huma/anaconda3/lib/python3.8/site-packages/numpy (version 1.20.1)
scipy:  /home/huma/anaconda3/lib/python3.8/site-packages/scipy (version 1.6.2)
libxc:  4.3.4
units:  Angstrom and eV
cores: 1
OMP_NUM_THREADS: 1

Reading from /home/huma/repo/litesoph/example/Na2/GS/gs.gpw
Read dipole, energy, free_energy, magmom, magmoms
Reading input parameters:
  basis: dzp
  convergence: {bands: occupied,
                density: 0.0001,
                eigenstates: 4e-08,
                energy: 5e-05,
                forces: inf}
  h: 0.3
  maxiter: 300
  mode: lcao
  nbands: 10

Initialize ...

Na-setup:
  name: Sodium
  id: 74d681ec425db66acd6a232eb07f04e6
  Z: 11.0
  valence: 7
  core: 4
  charge: 0.0
  file: /home/huma/anaconda3/share/gpaw/Na.LDA.gz
  compensation charges: gauss, rc=0.37, lmax=2
  cutoffs: 2.17(filt), 2.59(core),
  valence states:
                energy  radius
    3s(1.00)    -2.819   1.201
    2p(6.00)   -28.826   1.217
    3p(0.00)    -0.774   1.217
    *s          24.392   1.201
    *d           0.000   1.238

  LCAO basis set for Na:
    Name: dzp
    File: /home/huma/anaconda3/share/gpaw/Na.dzp.basis.gz
    Number of radial functions: 7
    Number of spherical harmonics: 17
      l=0, rc=11.4062 Bohr: 3s-sz confined orbital
      l=1, rc=3.6719 Bohr: 2p-sz confined orbital
      l=1, rc=15.9375 Bohr: 3p-sz confined orbital
      l=0, rc=6.9531 Bohr: 3s-dz split-valence wave
      l=1, rc=2.4219 Bohr: 2p-dz split-valence wave
      l=1, rc=10.0469 Bohr: 3p-dz split-valence wave
      l=1, rc=11.4062 Bohr: p-type Gaussian polarization

Reference energy: -8797.417089

Spin-paired calculation

Convergence criteria:
  Maximum total energy change: 5e-05 eV / electron
  Maximum integral of absolute density change: 0.0001 electrons
  Maximum integral of absolute eigenstate change: 4e-08 eV^2
  Maximum number of iterations: 300

Symmetries present (total): 1

  ( 1  0  0)
  ( 0  1  0)
  ( 0  0  1)

1 k-point (Gamma)
1 k-point in the irreducible part of the Brillouin zone
       k-points in crystal coordinates                weights
   0:     0.00000000    0.00000000    0.00000000          1/1

Wave functions: LCAO
  Diagonalizer: Serial LAPACK
  Atomic Correction: dense with blas
  Datatype: complex
 

<gpaw.occupations.ZeroWidth object at 0x7fba478a7280>
Eigensolver
   LCAO using direct dense diagonalizer 

Densities:
  Coarse grid: 40*40*52 grid
  Fine grid: 80*80*104 grid
  Total Charge: 0.000000 

Density mixing:
  Method: separate
  Backend: pulay
  Linear mixing parameter: 0.25
  Mixing with 3 old densities
  No damping of long wave oscillations 

Hamiltonian:
  XC and Coulomb potentials evaluated on a 80*80*104 grid
  Using the LDA Exchange-Correlation functional
  Interpolation: tri-quintic (5. degree polynomial)
  Poisson solver: FastPoissonSolver using
    6*3+1=19 point O(h^6) finite-difference Laplacian stencil;
    FFT axes: [];
    FST axes: [0, 1, 2].
 

Memory estimate:
  Process memory now: 161.25 MiB
  Calculator: 40.64 MiB
    Density: 22.16 MiB
      Arrays: 15.90 MiB
      Localized functions: 2.71 MiB
      Mixer: 3.55 MiB
    Hamiltonian: 10.60 MiB
      Arrays: 10.40 MiB
      XC: 0.00 MiB
      Poisson: 0.00 MiB
      vbar: 0.20 MiB
    Wavefunctions: 7.88 MiB
      C [qnM]: 0.01 MiB
      S, T [2 x qmm]: 0.04 MiB
      P [aqMi]: 0.00 MiB
      BasisFunctions: 7.84 MiB
      Eigensolver: 0.00 MiB

Total number of cores used: 1

Number of atoms: 2
Number of atomic orbitals: 34
Number of bands in calculation: 10
Number of valence electrons: 14
Bands to converge: occupied

... initialized

Initializing position-dependent things.

        .----------------------------.  
       /|                            |  
      / |                            |  
     /  |                            |  
    /   |                            |  
   /    |                            |  
  /     |                            |  
 *      |                            |  
 |      |                            |  
 |      |                            |  
 |      |                            |  
 |      |          Na                |  
 |      |                            |  
 |      |                            |  
 |      |                            |  
 |      |          Na                |  
 |      |                            |  
 |      |                            |  
 |      |                            |  
 |      .----------------------------.  
 |     /                            /   
 |    /                            /    
 |   /                            /     
 |  /                            /      
 | /                            /       
 |/                            /        
 *----------------------------*         

Positions:
   0 Na     6.000000    6.000000    6.000000    ( 0.0000,  0.0000,  0.0000)
   1 Na     6.000000    6.000000    9.120000    ( 0.0000,  0.0000,  0.0000)

-----------------------------------
Initializing time-propagation TDDFT
-----------------------------------

Propagator:
SICNPropagator

Logging time propagation
------------------------
      iter  realtime    calctime log(norm)
iter:    0  13:53:20        0.00     -14.7
----  Applying absorption kick
----  Magnitude: 0.00001000 Hartree/Bohr
----  Direction: 0.0000 0.0000 1.0000
iter:    0  13:53:20        0.00     -15.1
----  About to do 2000 propagation steps
iter:    1  13:53:20       10.00     -14.5
iter:    2  13:53:21       20.00     -15.3
iter:    3  13:53:21       30.00     -14.6
iter:    4  13:53:21       40.00     -15.1
iter:    5  13:53:22       50.00     -15.9
iter:    6  13:53:22       60.00     -15.5
iter:    7  13:53:22       70.00     -15.0
iter:    8  13:53:23       80.00     -15.3
iter:    9  13:53:23       90.00     -15.1
iter:   10  13:53:24      100.00     -14.5
iter:   11  13:53:24      110.00     -15.9
iter:   12  13:53:24      120.00     -15.2
iter:   13  13:53:25      130.00     -15.3
iter:   14  13:53:25      140.00     -14.7
iter:   15  13:53:26      150.00     -14.6
iter:   16  13:53:26      160.00     -15.1
iter:   17  13:53:26      170.00     -15.5
iter:   18  13:53:27      180.00     -14.8
iter:   19  13:53:27      190.00     -14.9
iter:   20  13:53:27      200.00     -14.6
iter:   21  13:53:28      210.00     -14.9
iter:   22  13:53:28      220.00     -14.9
iter:   23  13:53:29      230.00     -15.0
iter:   24  13:53:29      240.00     -14.7
iter:   25  13:53:29      250.00     -15.0
iter:   26  13:53:30      260.00     -15.2
iter:   27  13:53:30      270.00     -14.3
iter:   28  13:53:30      280.00     -14.7
iter:   29  13:53:31      290.00     -14.5
iter:   30  13:53:31      300.00     -14.7
iter:   31  13:53:32      310.00     -14.6
iter:   32  13:53:32      320.00     -14.8
iter:   33  13:53:32      330.00     -14.7
iter:   34  13:53:33      340.00     -15.2
iter:   35  13:53:33      350.00     -15.0
iter:   36  13:53:34      360.00     -14.9
iter:   37  13:53:34      370.00     -14.9
iter:   38  13:53:34      380.00     -15.0
iter:   39  13:53:35      390.00     -15.8
iter:   40  13:53:35      400.00     -15.8
iter:   41  13:53:35      410.00     -14.9
iter:   42  13:53:36      420.00     -15.1
iter:   43  13:53:36      430.00     -15.9
iter:   44  13:53:36      440.00     -16.0
iter:   45  13:53:37      450.00     -15.0
iter:   46  13:53:37      460.00     -14.7
iter:   47  13:53:38      470.00     -15.0
iter:   48  13:53:38      480.00     -14.8
iter:   49  13:53:38      490.00     -14.9
iter:   50  13:53:39      500.00     -15.4
iter:   51  13:53:39      510.00     -14.8
iter:   52  13:53:39      520.00     -15.0
iter:   53  13:53:40      530.00     -14.5
iter:   54  13:53:40      540.00     -14.9
iter:   55  13:53:40      550.00     -15.2
iter:   56  13:53:41      560.00     -15.2
iter:   57  13:53:41      570.00     -15.2
iter:   58  13:53:42      580.00     -14.8
iter:   59  13:53:42      590.00     -15.0
iter:   60  13:53:42      600.00     -15.1
iter:   61  13:53:43      610.00     -14.8
iter:   62  13:53:43      620.00     -15.1
iter:   63  13:53:43      630.00     -15.1
iter:   64  13:53:44      640.00     -14.7
iter:   65  13:53:44      650.00     -15.0
iter:   66  13:53:45      660.00     -15.1
iter:   67  13:53:45      670.00     -15.4
iter:   68  13:53:45      680.00     -15.1
iter:   69  13:53:46      690.00     -15.3
iter:   70  13:53:46      700.00     -15.0
iter:   71  13:53:46      710.00     -14.6
iter:   72  13:53:47      720.00     -15.0
iter:   73  13:53:47      730.00     -15.5
iter:   74  13:53:48      740.00     -15.1
iter:   75  13:53:48      750.00     -15.1
iter:   76  13:53:48      760.00     -14.7
iter:   77  13:53:49      770.00     -14.7
iter:   78  13:53:49      780.00     -15.2
iter:   79  13:53:49      790.00     -15.3
iter:   80  13:53:50      800.00     -15.2
iter:   81  13:53:50      810.00     -15.4
iter:   82  13:53:51      820.00     -15.3
iter:   83  13:53:51      830.00     -14.8
iter:   84  13:53:51      840.00     -14.9
iter:   85  13:53:52      850.00     -15.8
iter:   86  13:53:52      860.00     -14.6
iter:   87  13:53:52      870.00     -15.1
iter:   88  13:53:53      880.00     -14.7
iter:   89  13:53:53      890.00     -15.3
iter:   90  13:53:53      900.00     -15.1
iter:   91  13:53:54      910.00     -15.8
iter:   92  13:53:54      920.00     -14.9
iter:   93  13:53:55      930.00     -15.3
iter:   94  13:53:55      940.00     -14.6
iter:   95  13:53:55      950.00     -14.7
iter:   96  13:53:56      960.00     -15.7
iter:   97  13:53:56      970.00     -15.9
iter:   98  13:53:56      980.00     -14.5
iter:   99  13:53:57      990.00     -15.2
iter:  100  13:53:57     1000.00     -15.1
iter:  101  13:53:57     1010.00     -15.7
iter:  102  13:53:58     1020.00     -14.8
iter:  103  13:53:58     1030.00     -14.7
iter:  104  13:53:59     1040.00     -14.9
iter:  105  13:53:59     1050.00     -14.9
iter:  106  13:53:59     1060.00     -15.4
iter:  107  13:54:00     1070.00     -15.0
iter:  108  13:54:00     1080.00     -14.9
iter:  109  13:54:00     1090.00     -15.6
iter:  110  13:54:01     1100.00     -15.0
iter:  111  13:54:01     1110.00     -14.9
iter:  112  13:54:01     1120.00     -14.8
iter:  113  13:54:02     1130.00     -15.0
iter:  114  13:54:02     1140.00     -15.0
iter:  115  13:54:03     1150.00     -15.2
iter:  116  13:54:03     1160.00     -14.8
iter:  117  13:54:03     1170.00     -15.2
iter:  118  13:54:04     1180.00     -14.9
iter:  119  13:54:04     1190.00     -14.9
iter:  120  13:54:04     1200.00     -15.3
iter:  121  13:54:05     1210.00     -15.0
iter:  122  13:54:05     1220.00     -15.1
iter:  123  13:54:06     1230.00     -15.1
iter:  124  13:54:06     1240.00     -14.9
iter:  125  13:54:06     1250.00     -14.6
iter:  126  13:54:07     1260.00     -16.0
iter:  127  13:54:07     1270.00     -15.2
iter:  128  13:54:07     1280.00     -15.0
iter:  129  13:54:08     1290.00     -14.6
iter:  130  13:54:08     1300.00     -14.9
iter:  131  13:54:08     1310.00     -15.1
iter:  132  13:54:09     1320.00     -14.9
iter:  133  13:54:09     1330.00     -14.8
iter:  134  13:54:10     1340.00     -15.4
iter:  135  13:54:10     1350.00     -15.1
iter:  136  13:54:10     1360.00     -15.6
iter:  137  13:54:11     1370.00     -15.1
iter:  138  13:54:11     1380.00     -14.6
iter:  139  13:54:11     1390.00     -14.9
iter:  140  13:54:12     1400.00     -15.1
iter:  141  13:54:12     1410.00     -15.2
iter:  142  13:54:12     1420.00     -14.8
iter:  143  13:54:13     1430.00     -15.4
iter:  144  13:54:13     1440.00     -14.8
iter:  145  13:54:14     1450.00     -15.2
iter:  146  13:54:14     1460.00     -15.4
iter:  147  13:54:14     1470.00     -15.5
iter:  148  13:54:15     1480.00     -15.6
iter:  149  13:54:15     1490.00     -15.0
iter:  150  13:54:15     1500.00     -14.6
iter:  151  13:54:16     1510.00     -14.6
iter:  152  13:54:16     1520.00     -14.6
iter:  153  13:54:16     1530.00     -14.8
iter:  154  13:54:17     1540.00     -14.7
iter:  155  13:54:17     1550.00     -14.7
iter:  156  13:54:18     1560.00     -15.1
iter:  157  13:54:18     1570.00     -15.2
iter:  158  13:54:18     1580.00     -15.2
iter:  159  13:54:19     1590.00     -15.0
iter:  160  13:54:19     1600.00     -14.9
iter:  161  13:54:19     1610.00     -14.6
iter:  162  13:54:20     1620.00     -15.4
iter:  163  13:54:20     1630.00     -14.8
iter:  164  13:54:20     1640.00     -15.1
iter:  165  13:54:21     1650.00     -15.4
iter:  166  13:54:21     1660.00     -14.9
iter:  167  13:54:22     1670.00     -14.9
iter:  168  13:54:22     1680.00     -15.6
iter:  169  13:54:22     1690.00     -15.3
iter:  170  13:54:23     1700.00     -14.8
iter:  171  13:54:23     1710.00     -14.8
iter:  172  13:54:23     1720.00     -14.9
iter:  173  13:54:24     1730.00     -15.1
iter:  174  13:54:24     1740.00     -15.3
iter:  175  13:54:24     1750.00     -14.6
iter:  176  13:54:25     1760.00     -15.1
iter:  177  13:54:25     1770.00     -14.8
iter:  178  13:54:26     1780.00     -14.9
iter:  179  13:54:26     1790.00     -14.8
iter:  180  13:54:26     1800.00     -15.5
iter:  181  13:54:27     1810.00     -14.7
iter:  182  13:54:27     1820.00     -15.9
iter:  183  13:54:27     1830.00     -15.1
iter:  184  13:54:28     1840.00     -15.6
iter:  185  13:54:28     1850.00     -15.2
iter:  186  13:54:28     1860.00     -14.9
iter:  187  13:54:29     1870.00     -15.0
iter:  188  13:54:29     1880.00     -14.9
iter:  189  13:54:30     1890.00     -15.2
iter:  190  13:54:30     1900.00     -15.1
iter:  191  13:54:30     1910.00     -14.9
iter:  192  13:54:31     1920.00     -14.8
iter:  193  13:54:31     1930.00     -14.9
iter:  194  13:54:31     1940.00     -14.8
iter:  195  13:54:32     1950.00     -15.5
iter:  196  13:54:32     1960.00     -14.9
iter:  197  13:54:32     1970.00     -14.8
iter:  198  13:54:33     1980.00     -14.8
iter:  199  13:54:33     1990.00     -14.6
iter:  200  13:54:34     2000.00     -15.6
iter:  201  13:54:34     2010.00     -15.9
iter:  202  13:54:34     2020.00     -15.3
iter:  203  13:54:35     2030.00     -15.2
iter:  204  13:54:35     2040.00     -14.6
iter:  205  13:54:35     2050.00     -14.7
iter:  206  13:54:36     2060.00     -15.7
iter:  207  13:54:36     2070.00     -14.6
iter:  208  13:54:36     2080.00     -15.4
iter:  209  13:54:37     2090.00     -14.9
iter:  210  13:54:37     2100.00     -15.0
iter:  211  13:54:38     2110.00     -15.8
iter:  212  13:54:38     2120.00     -15.9
iter:  213  13:54:38     2130.00     -15.3
iter:  214  13:54:39     2140.00     -15.4
iter:  215  13:54:39     2150.00     -15.0
iter:  216  13:54:39     2160.00     -15.4
iter:  217  13:54:40     2170.00     -14.7
iter:  218  13:54:40     2180.00     -14.9
iter:  219  13:54:40     2190.00     -14.7
iter:  220  13:54:41     2200.00     -14.6
iter:  221  13:54:41     2210.00     -15.0
iter:  222  13:54:42     2220.00     -15.1
iter:  223  13:54:42     2230.00     -14.9
iter:  224  13:54:42     2240.00     -14.8
iter:  225  13:54:43     2250.00     -15.4
iter:  226  13:54:43     2260.00     -15.2
iter:  227  13:54:43     2270.00     -14.8
iter:  228  13:54:44     2280.00     -15.3
iter:  229  13:54:44     2290.00     -14.9
iter:  230  13:54:44     2300.00     -15.7
iter:  231  13:54:45     2310.00     -15.1
iter:  232  13:54:45     2320.00     -14.7
iter:  233  13:54:46     2330.00     -14.9
iter:  234  13:54:46     2340.00     -14.6
iter:  235  13:54:46     2350.00     -15.0
iter:  236  13:54:47     2360.00     -15.4
iter:  237  13:54:47     2370.00     -15.5
iter:  238  13:54:47     2380.00     -14.6
iter:  239  13:54:48     2390.00     -15.1
iter:  240  13:54:48     2400.00     -14.9
iter:  241  13:54:48     2410.00     -15.2
iter:  242  13:54:49     2420.00     -14.8
iter:  243  13:54:49     2430.00     -14.9
iter:  244  13:54:50     2440.00     -15.7
iter:  245  13:54:50     2450.00     -15.6
iter:  246  13:54:50     2460.00     -14.9
iter:  247  13:54:51     2470.00     -14.7
iter:  248  13:54:51     2480.00     -15.2
iter:  249  13:54:51     2490.00     -15.0
iter:  250  13:54:52     2500.00     -15.0
iter:  251  13:54:52     2510.00     -14.9
iter:  252  13:54:52     2520.00     -15.3
iter:  253  13:54:53     2530.00     -15.0
iter:  254  13:54:53     2540.00     -14.9
iter:  255  13:54:54     2550.00     -15.1
iter:  256  13:54:54     2560.00     -15.6
iter:  257  13:54:54     2570.00     -14.9
iter:  258  13:54:55     2580.00     -15.9
iter:  259  13:54:55     2590.00     -15.0
iter:  260  13:54:55     2600.00     -15.8
iter:  261  13:54:56     2610.00     -14.9
iter:  262  13:54:56     2620.00     -15.1
iter:  263  13:54:56     2630.00     -15.3
iter:  264  13:54:57     2640.00     -15.0
iter:  265  13:54:57     2650.00     -15.5
iter:  266  13:54:58     2660.00     -15.8
iter:  267  13:54:58     2670.00     -16.0
iter:  268  13:54:58     2680.00     -14.7
iter:  269  13:54:59     2690.00     -14.8
iter:  270  13:54:59     2700.00     -15.2
iter:  271  13:54:59     2710.00     -14.9
iter:  272  13:55:00     2720.00     -15.1
iter:  273  13:55:00     2730.00     -15.2
iter:  274  13:55:00     2740.00     -15.2
iter:  275  13:55:01     2750.00     -15.0
iter:  276  13:55:01     2760.00     -15.8
iter:  277  13:55:02     2770.00     -15.6
iter:  278  13:55:02     2780.00     -14.9
iter:  279  13:55:02     2790.00     -14.6
iter:  280  13:55:03     2800.00     -14.5
iter:  281  13:55:03     2810.00     -15.2
iter:  282  13:55:03     2820.00     -14.7
iter:  283  13:55:04     2830.00     -14.8
iter:  284  13:55:04     2840.00     -14.6
iter:  285  13:55:04     2850.00     -15.0
iter:  286  13:55:05     2860.00     -15.1
iter:  287  13:55:05     2870.00     -14.9
iter:  288  13:55:06     2880.00     -15.1
iter:  289  13:55:06     2890.00     -14.7
iter:  290  13:55:06     2900.00     -15.0
iter:  291  13:55:07     2910.00     -15.4
iter:  292  13:55:07     2920.00     -14.7
iter:  293  13:55:07     2930.00     -15.7
iter:  294  13:55:08     2940.00     -15.3
iter:  295  13:55:08     2950.00     -15.0
iter:  296  13:55:08     2960.00     -14.7
iter:  297  13:55:09     2970.00     -15.3
iter:  298  13:55:09     2980.00     -15.4
iter:  299  13:55:10     2990.00     -15.4
iter:  300  13:55:10     3000.00     -14.6
iter:  301  13:55:10     3010.00     -14.9
iter:  302  13:55:11     3020.00     -15.3
iter:  303  13:55:11     3030.00     -14.5
iter:  304  13:55:11     3040.00     -15.4
iter:  305  13:55:12     3050.00     -14.9
iter:  306  13:55:12     3060.00     -15.0
iter:  307  13:55:12     3070.00     -15.5
iter:  308  13:55:13     3080.00     -15.2
iter:  309  13:55:13     3090.00     -15.2
iter:  310  13:55:14     3100.00     -15.5
iter:  311  13:55:14     3110.00     -14.9
iter:  312  13:55:14     3120.00     -15.0
iter:  313  13:55:15     3130.00     -15.1
iter:  314  13:55:15     3140.00     -15.0
iter:  315  13:55:15     3150.00     -15.6
iter:  316  13:55:16     3160.00     -14.8
iter:  317  13:55:16     3170.00     -14.8
iter:  318  13:55:16     3180.00     -15.3
iter:  319  13:55:17     3190.00     -15.2
iter:  320  13:55:17     3200.00     -14.9
iter:  321  13:55:18     3210.00     -15.1
iter:  322  13:55:18     3220.00     -15.0
iter:  323  13:55:18     3230.00     -14.8
iter:  324  13:55:19     3240.00     -15.0
iter:  325  13:55:19     3250.00     -15.0
iter:  326  13:55:19     3260.00     -14.8
iter:  327  13:55:20     3270.00     -14.8
iter:  328  13:55:20     3280.00     -15.3
iter:  329  13:55:21     3290.00     -15.1
iter:  330  13:55:21     3300.00     -15.2
iter:  331  13:55:21     3310.00     -15.1
iter:  332  13:55:22     3320.00     -14.8
iter:  333  13:55:22     3330.00     -15.6
iter:  334  13:55:22     3340.00     -15.2
iter:  335  13:55:23     3350.00     -14.7
iter:  336  13:55:23     3360.00     -14.8
iter:  337  13:55:23     3370.00     -15.0
iter:  338  13:55:24     3380.00     -14.9
iter:  339  13:55:24     3390.00     -15.4
iter:  340  13:55:25     3400.00     -15.8
iter:  341  13:55:25     3410.00     -15.1
iter:  342  13:55:25     3420.00     -14.7
iter:  343  13:55:26     3430.00     -15.4
iter:  344  13:55:26     3440.00     -15.6
iter:  345  13:55:26     3450.00     -15.0
iter:  346  13:55:27     3460.00     -14.6
iter:  347  13:55:27     3470.00     -15.3
iter:  348  13:55:27     3480.00     -15.2
iter:  349  13:55:28     3490.00     -15.9
iter:  350  13:55:28     3500.00     -14.9
iter:  351  13:55:29     3510.00     -14.8
iter:  352  13:55:29     3520.00     -15.2
iter:  353  13:55:29     3530.00     -15.7
iter:  354  13:55:30     3540.00     -15.3
iter:  355  13:55:30     3550.00     -15.4
iter:  356  13:55:30     3560.00     -14.7
iter:  357  13:55:31     3570.00     -15.2
iter:  358  13:55:31     3580.00     -14.7
iter:  359  13:55:31     3590.00     -14.4
iter:  360  13:55:32     3600.00     -14.9
iter:  361  13:55:32     3610.00     -14.8
iter:  362  13:55:33     3620.00     -14.7
iter:  363  13:55:33     3630.00     -15.3
iter:  364  13:55:33     3640.00     -15.3
iter:  365  13:55:34     3650.00     -15.1
iter:  366  13:55:34     3660.00     -15.4
iter:  367  13:55:34     3670.00     -15.2
iter:  368  13:55:35     3680.00     -15.0
iter:  369  13:55:35     3690.00     -14.7
iter:  370  13:55:35     3700.00     -15.5
iter:  371  13:55:36     3710.00     -14.9
iter:  372  13:55:36     3720.00     -15.5
iter:  373  13:55:37     3730.00     -14.9
iter:  374  13:55:37     3740.00     -14.9
iter:  375  13:55:37     3750.00     -15.9
iter:  376  13:55:38     3760.00     -15.4
iter:  377  13:55:38     3770.00     -15.9
iter:  378  13:55:38     3780.00     -15.0
iter:  379  13:55:39     3790.00     -15.6
iter:  380  13:55:39     3800.00     -14.8
iter:  381  13:55:39     3810.00     -15.0
iter:  382  13:55:40     3820.00     -15.2
iter:  383  13:55:40     3830.00     -15.2
iter:  384  13:55:41     3840.00     -15.0
iter:  385  13:55:41     3850.00     -14.7
iter:  386  13:55:41     3860.00     -15.5
iter:  387  13:55:42     3870.00     -15.3
iter:  388  13:55:42     3880.00     -14.8
iter:  389  13:55:42     3890.00     -15.2
iter:  390  13:55:43     3900.00     -14.9
iter:  391  13:55:43     3910.00     -14.8
iter:  392  13:55:43     3920.00     -14.9
iter:  393  13:55:44     3930.00     -15.4
iter:  394  13:55:44     3940.00     -14.9
iter:  395  13:55:45     3950.00     -15.0
iter:  396  13:55:45     3960.00     -15.0
iter:  397  13:55:45     3970.00     -14.9
iter:  398  13:55:46     3980.00     -15.1
iter:  399  13:55:46     3990.00     -15.7
iter:  400  13:55:46     4000.00     -14.7
iter:  401  13:55:47     4010.00     -15.0
iter:  402  13:55:47     4020.00     -15.2
iter:  403  13:55:47     4030.00     -15.0
iter:  404  13:55:48     4040.00     -14.7
iter:  405  13:55:48     4050.00     -15.5
iter:  406  13:55:48     4060.00     -15.0
iter:  407  13:55:49     4070.00     -15.3
iter:  408  13:55:49     4080.00     -14.7
iter:  409  13:55:50     4090.00     -15.4
iter:  410  13:55:50     4100.00     -14.9
iter:  411  13:55:50     4110.00     -15.6
iter:  412  13:55:51     4120.00     -15.0
iter:  413  13:55:51     4130.00     -15.3
iter:  414  13:55:51     4140.00     -15.4
iter:  415  13:55:52     4150.00     -14.9
iter:  416  13:55:52     4160.00     -14.7
iter:  417  13:55:52     4170.00     -15.8
iter:  418  13:55:53     4180.00     -15.2
iter:  419  13:55:53     4190.00     -15.0
iter:  420  13:55:54     4200.00     -15.2
iter:  421  13:55:54     4210.00     -15.3
iter:  422  13:55:54     4220.00     -15.6
iter:  423  13:55:55     4230.00     -15.1
iter:  424  13:55:55     4240.00     -14.8
iter:  425  13:55:55     4250.00     -15.1
iter:  426  13:55:56     4260.00     -15.2
iter:  427  13:55:56     4270.00     -15.2
iter:  428  13:55:56     4280.00     -14.9
iter:  429  13:55:57     4290.00     -14.9
iter:  430  13:55:57     4300.00     -14.9
iter:  431  13:55:58     4310.00     -15.1
iter:  432  13:55:58     4320.00     -15.4
iter:  433  13:55:58     4330.00     -15.5
iter:  434  13:55:59     4340.00     -15.5
iter:  435  13:55:59     4350.00     -14.7
iter:  436  13:55:59     4360.00     -15.0
iter:  437  13:56:00     4370.00     -15.0
iter:  438  13:56:00     4380.00     -15.0
iter:  439  13:56:00     4390.00     -14.8
iter:  440  13:56:01     4400.00     -15.6
iter:  441  13:56:01     4410.00     -15.0
iter:  442  13:56:02     4420.00     -14.9
iter:  443  13:56:02     4430.00     -15.4
iter:  444  13:56:02     4440.00     -15.1
iter:  445  13:56:03     4450.00     -15.5
iter:  446  13:56:03     4460.00     -15.9
iter:  447  13:56:03     4470.00     -14.7
iter:  448  13:56:04     4480.00     -15.0
iter:  449  13:56:04     4490.00     -14.8
iter:  450  13:56:04     4500.00     -14.8
iter:  451  13:56:05     4510.00     -14.7
iter:  452  13:56:05     4520.00     -14.7
iter:  453  13:56:06     4530.00     -15.5
iter:  454  13:56:06     4540.00     -15.2
iter:  455  13:56:06     4550.00     -14.5
iter:  456  13:56:07     4560.00     -14.8
iter:  457  13:56:07     4570.00     -14.7
iter:  458  13:56:07     4580.00     -15.5
iter:  459  13:56:08     4590.00     -14.9
iter:  460  13:56:08     4600.00     -15.6
iter:  461  13:56:08     4610.00     -15.0
iter:  462  13:56:09     4620.00     -15.5
iter:  463  13:56:09     4630.00     -14.7
iter:  464  13:56:10     4640.00     -15.0
iter:  465  13:56:10     4650.00     -15.0
iter:  466  13:56:10     4660.00     -15.0
iter:  467  13:56:11     4670.00     -15.3
iter:  468  13:56:11     4680.00     -14.6
iter:  469  13:56:11     4690.00     -15.5
iter:  470  13:56:12     4700.00     -15.4
iter:  471  13:56:12     4710.00     -15.4
iter:  472  13:56:12     4720.00     -14.8
iter:  473  13:56:13     4730.00     -14.9
iter:  474  13:56:13     4740.00     -15.0
iter:  475  13:56:14     4750.00     -15.3
iter:  476  13:56:14     4760.00     -14.9
iter:  477  13:56:14     4770.00     -15.2
iter:  478  13:56:15     4780.00     -15.0
iter:  479  13:56:15     4790.00     -15.0
iter:  480  13:56:15     4800.00     -14.9
iter:  481  13:56:16     4810.00     -14.9
iter:  482  13:56:16     4820.00     -15.4
iter:  483  13:56:17     4830.00     -14.8
iter:  484  13:56:17     4840.00     -15.0
iter:  485  13:56:17     4850.00     -15.1
iter:  486  13:56:18     4860.00     -14.7
iter:  487  13:56:18     4870.00     -15.7
iter:  488  13:56:18     4880.00     -14.8
iter:  489  13:56:19     4890.00     -14.8
iter:  490  13:56:19     4900.00     -15.3
iter:  491  13:56:19     4910.00     -14.9
iter:  492  13:56:20     4920.00     -15.7
iter:  493  13:56:20     4930.00     -14.7
iter:  494  13:56:21     4940.00     -15.2
iter:  495  13:56:21     4950.00     -15.0
iter:  496  13:56:21     4960.00     -14.7
iter:  497  13:56:22     4970.00     -14.6
iter:  498  13:56:22     4980.00     -15.5
iter:  499  13:56:22     4990.00     -15.2
iter:  500  13:56:23     5000.00     -14.6
iter:  501  13:56:23     5010.00     -15.4
iter:  502  13:56:23     5020.00     -14.6
iter:  503  13:56:24     5030.00     -15.1
iter:  504  13:56:24     5040.00     -15.7
iter:  505  13:56:25     5050.00     -14.9
iter:  506  13:56:25     5060.00     -15.2
iter:  507  13:56:25     5070.00     -15.2
iter:  508  13:56:26     5080.00     -15.5
iter:  509  13:56:26     5090.00     -15.3
iter:  510  13:56:26     5100.00     -15.5
iter:  511  13:56:27     5110.00     -14.8
iter:  512  13:56:27     5120.00     -15.5
iter:  513  13:56:27     5130.00     -15.5
iter:  514  13:56:28     5140.00     -14.9
iter:  515  13:56:28     5150.00     -14.9
iter:  516  13:56:29     5160.00     -15.4
iter:  517  13:56:29     5170.00     -15.4
iter:  518  13:56:29     5180.00     -15.4
iter:  519  13:56:30     5190.00     -15.2
iter:  520  13:56:30     5200.00     -15.3
iter:  521  13:56:30     5210.00     -14.8
iter:  522  13:56:31     5220.00     -14.7
iter:  523  13:56:31     5230.00     -15.1
iter:  524  13:56:31     5240.00     -14.9
iter:  525  13:56:32     5250.00     -15.2
iter:  526  13:56:32     5260.00     -14.6
iter:  527  13:56:33     5270.00     -15.3
iter:  528  13:56:33     5280.00     -14.8
iter:  529  13:56:33     5290.00     -15.2
iter:  530  13:56:34     5300.00     -15.1
iter:  531  13:56:34     5310.00     -14.8
iter:  532  13:56:34     5320.00     -15.2
iter:  533  13:56:35     5330.00     -15.8
iter:  534  13:56:35     5340.00     -14.9
iter:  535  13:56:35     5350.00     -15.6
iter:  536  13:56:36     5360.00     -15.6
iter:  537  13:56:36     5370.00     -15.1
iter:  538  13:56:37     5380.00     -14.9
iter:  539  13:56:37     5390.00     -15.3
iter:  540  13:56:37     5400.00     -15.9
iter:  541  13:56:38     5410.00     -15.2
iter:  542  13:56:38     5420.00     -15.6
iter:  543  13:56:38     5430.00     -14.9
iter:  544  13:56:39     5440.00     -15.3
iter:  545  13:56:39     5450.00     -15.2
iter:  546  13:56:39     5460.00     -15.2
iter:  547  13:56:40     5470.00     -14.9
iter:  548  13:56:40     5480.00     -15.3
iter:  549  13:56:41     5490.00     -14.7
iter:  550  13:56:41     5500.00     -15.2
iter:  551  13:56:41     5510.00     -15.3
iter:  552  13:56:42     5520.00     -14.9
iter:  553  13:56:42     5530.00     -15.3
iter:  554  13:56:42     5540.00     -15.0
iter:  555  13:56:43     5550.00     -14.8
iter:  556  13:56:43     5560.00     -15.1
iter:  557  13:56:43     5570.00     -15.1
iter:  558  13:56:44     5580.00     -15.0
iter:  559  13:56:44     5590.00     -14.6
iter:  560  13:56:45     5600.00     -14.9
iter:  561  13:56:45     5610.00     -15.1
iter:  562  13:56:45     5620.00     -15.2
iter:  563  13:56:46     5630.00     -14.9
iter:  564  13:56:46     5640.00     -15.0
iter:  565  13:56:46     5650.00     -15.5
iter:  566  13:56:47     5660.00     -14.8
iter:  567  13:56:47     5670.00     -15.7
iter:  568  13:56:47     5680.00     -15.2
iter:  569  13:56:48     5690.00     -15.9
iter:  570  13:56:48     5700.00     -14.9
iter:  571  13:56:49     5710.00     -15.2
iter:  572  13:56:49     5720.00     -15.3
iter:  573  13:56:49     5730.00     -15.4
iter:  574  13:56:50     5740.00     -15.1
iter:  575  13:56:50     5750.00     -15.7
iter:  576  13:56:50     5760.00     -15.4
iter:  577  13:56:51     5770.00     -15.4
iter:  578  13:56:51     5780.00     -15.3
iter:  579  13:56:51     5790.00     -15.3
iter:  580  13:56:52     5800.00     -15.6
iter:  581  13:56:52     5810.00     -15.5
iter:  582  13:56:53     5820.00     -15.8
iter:  583  13:56:53     5830.00     -15.5
iter:  584  13:56:53     5840.00     -14.7
iter:  585  13:56:54     5850.00     -14.9
iter:  586  13:56:54     5860.00     -15.2
iter:  587  13:56:54     5870.00     -14.9
iter:  588  13:56:55     5880.00     -14.9
iter:  589  13:56:55     5890.00     -15.6
iter:  590  13:56:56     5900.00     -14.7
iter:  591  13:56:56     5910.00     -14.6
iter:  592  13:56:56     5920.00     -15.6
iter:  593  13:56:57     5930.00     -14.6
iter:  594  13:56:57     5940.00     -15.5
iter:  595  13:56:57     5950.00     -14.9
iter:  596  13:56:58     5960.00     -15.5
iter:  597  13:56:58     5970.00     -15.6
iter:  598  13:56:58     5980.00     -15.4
iter:  599  13:56:59     5990.00     -14.9
iter:  600  13:56:59     6000.00     -15.2
iter:  601  13:57:00     6010.00     -15.4
iter:  602  13:57:00     6020.00     -14.9
iter:  603  13:57:00     6030.00     -15.6
iter:  604  13:57:01     6040.00     -15.0
iter:  605  13:57:01     6050.00     -15.3
iter:  606  13:57:01     6060.00     -14.7
iter:  607  13:57:02     6070.00     -15.7
iter:  608  13:57:02     6080.00     -14.6
iter:  609  13:57:02     6090.00     -15.3
iter:  610  13:57:03     6100.00     -15.6
iter:  611  13:57:03     6110.00     -15.5
iter:  612  13:57:04     6120.00     -15.2
iter:  613  13:57:04     6130.00     -15.6
iter:  614  13:57:04     6140.00     -14.7
iter:  615  13:57:05     6150.00     -15.7
iter:  616  13:57:05     6160.00     -14.8
iter:  617  13:57:05     6170.00     -15.1
iter:  618  13:57:06     6180.00     -15.3
iter:  619  13:57:06     6190.00     -15.0
iter:  620  13:57:06     6200.00     -14.7
iter:  621  13:57:07     6210.00     -14.8
iter:  622  13:57:07     6220.00     -14.7
iter:  623  13:57:07     6230.00     -15.9
iter:  624  13:57:08     6240.00     -15.2
iter:  625  13:57:08     6250.00     -14.9
iter:  626  13:57:09     6260.00     -14.9
iter:  627  13:57:09     6270.00     -15.5
iter:  628  13:57:09     6280.00     -15.0
iter:  629  13:57:10     6290.00     -15.2
iter:  630  13:57:10     6300.00     -15.4
iter:  631  13:57:10     6310.00     -14.9
iter:  632  13:57:11     6320.00     -15.1
iter:  633  13:57:11     6330.00     -15.0
iter:  634  13:57:12     6340.00     -14.8
iter:  635  13:57:12     6350.00     -14.9
iter:  636  13:57:12     6360.00     -14.6
iter:  637  13:57:13     6370.00     -15.9
iter:  638  13:57:13     6380.00     -14.9
iter:  639  13:57:13     6390.00     -15.3
iter:  640  13:57:14     6400.00     -14.8
iter:  641  13:57:14     6410.00     -14.9
iter:  642  13:57:14     6420.00     -15.0
iter:  643  13:57:15     6430.00     -14.9
iter:  644  13:57:15     6440.00     -15.9
iter:  645  13:57:16     6450.00     -14.7
iter:  646  13:57:16     6460.00     -15.8
iter:  647  13:57:16     6470.00     -15.2
iter:  648  13:57:17     6480.00     -14.8
iter:  649  13:57:17     6490.00     -15.7
iter:  650  13:57:17     6500.00     -14.6
iter:  651  13:57:18     6510.00     -15.3
iter:  652  13:57:18     6520.00     -14.9
iter:  653  13:57:18     6530.00     -15.1
iter:  654  13:57:19     6540.00     -15.5
iter:  655  13:57:19     6550.00     -14.7
iter:  656  13:57:20     6560.00     -15.0
iter:  657  13:57:20     6570.00     -14.7
iter:  658  13:57:20     6580.00     -15.8
iter:  659  13:57:21     6590.00     -15.0
iter:  660  13:57:21     6600.00     -15.0
iter:  661  13:57:21     6610.00     -14.9
iter:  662  13:57:22     6620.00     -14.9
iter:  663  13:57:22     6630.00     -15.0
iter:  664  13:57:23     6640.00     -15.0
iter:  665  13:57:23     6650.00     -15.3
iter:  666  13:57:23     6660.00     -14.8
iter:  667  13:57:24     6670.00     -15.4
iter:  668  13:57:24     6680.00     -15.1
iter:  669  13:57:24     6690.00     -14.9
iter:  670  13:57:25     6700.00     -15.2
iter:  671  13:57:25     6710.00     -16.0
iter:  672  13:57:25     6720.00     -15.6
iter:  673  13:57:26     6730.00     -15.3
iter:  674  13:57:26     6740.00     -14.7
iter:  675  13:57:27     6750.00     -15.4
iter:  676  13:57:27     6760.00     -15.1
iter:  677  13:57:27     6770.00     -14.8
iter:  678  13:57:28     6780.00     -15.3
iter:  679  13:57:28     6790.00     -14.7
iter:  680  13:57:28     6800.00     -15.0
iter:  681  13:57:29     6810.00     -14.8
iter:  682  13:57:29     6820.00     -15.3
iter:  683  13:57:29     6830.00     -15.0
iter:  684  13:57:30     6840.00     -15.0
iter:  685  13:57:30     6850.00     -14.9
iter:  686  13:57:31     6860.00     -15.2
iter:  687  13:57:31     6870.00     -14.9
iter:  688  13:57:31     6880.00     -15.2
iter:  689  13:57:32     6890.00     -15.1
iter:  690  13:57:32     6900.00     -14.7
iter:  691  13:57:32     6910.00     -15.2
iter:  692  13:57:33     6920.00     -15.1
iter:  693  13:57:33     6930.00     -14.6
iter:  694  13:57:33     6940.00     -14.5
iter:  695  13:57:34     6950.00     -14.9
iter:  696  13:57:34     6960.00     -15.1
iter:  697  13:57:35     6970.00     -15.2
iter:  698  13:57:35     6980.00     -15.6
iter:  699  13:57:35     6990.00     -15.0
iter:  700  13:57:36     7000.00     -15.0
iter:  701  13:57:36     7010.00     -15.0
iter:  702  13:57:36     7020.00     -14.8
iter:  703  13:57:37     7030.00     -15.1
iter:  704  13:57:37     7040.00     -14.7
iter:  705  13:57:37     7050.00     -14.9
iter:  706  13:57:38     7060.00     -15.0
iter:  707  13:57:38     7070.00     -15.5
iter:  708  13:57:38     7080.00     -15.1
iter:  709  13:57:39     7090.00     -14.4
iter:  710  13:57:39     7100.00     -14.9
iter:  711  13:57:40     7110.00     -14.9
iter:  712  13:57:40     7120.00     -15.6
iter:  713  13:57:40     7130.00     -14.8
iter:  714  13:57:41     7140.00     -15.1
iter:  715  13:57:41     7150.00     -15.1
iter:  716  13:57:41     7160.00     -15.3
iter:  717  13:57:42     7170.00     -15.4
iter:  718  13:57:42     7180.00     -15.3
iter:  719  13:57:42     7190.00     -15.8
iter:  720  13:57:43     7200.00     -15.6
iter:  721  13:57:43     7210.00     -14.9
iter:  722  13:57:44     7220.00     -14.8
iter:  723  13:57:44     7230.00     -14.8
iter:  724  13:57:44     7240.00     -15.0
iter:  725  13:57:45     7250.00     -15.1
iter:  726  13:57:45     7260.00     -15.0
iter:  727  13:57:45     7270.00     -15.2
iter:  728  13:57:46     7280.00     -15.8
iter:  729  13:57:46     7290.00     -14.6
iter:  730  13:57:46     7300.00     -14.7
iter:  731  13:57:47     7310.00     -15.8
iter:  732  13:57:47     7320.00     -15.1
iter:  733  13:57:48     7330.00     -15.0
iter:  734  13:57:48     7340.00     -14.7
iter:  735  13:57:48     7350.00     -15.2
iter:  736  13:57:49     7360.00     -15.2
iter:  737  13:57:49     7370.00     -15.0
iter:  738  13:57:49     7380.00     -15.0
iter:  739  13:57:50     7390.00     -14.8
iter:  740  13:57:50     7400.00     -15.3
iter:  741  13:57:50     7410.00     -15.2
iter:  742  13:57:51     7420.00     -14.7
iter:  743  13:57:51     7430.00     -15.4
iter:  744  13:57:52     7440.00     -15.0
iter:  745  13:57:52     7450.00     -15.3
iter:  746  13:57:52     7460.00     -14.9
iter:  747  13:57:53     7470.00     -15.0
iter:  748  13:57:53     7480.00     -14.5
iter:  749  13:57:53     7490.00     -14.8
iter:  750  13:57:54     7500.00     -14.8
iter:  751  13:57:54     7510.00     -15.3
iter:  752  13:57:54     7520.00     -15.1
iter:  753  13:57:55     7530.00     -14.6
iter:  754  13:57:55     7540.00     -14.8
iter:  755  13:57:56     7550.00     -15.0
iter:  756  13:57:56     7560.00     -14.7
iter:  757  13:57:56     7570.00     -15.2
iter:  758  13:57:57     7580.00     -14.8
iter:  759  13:57:57     7590.00     -15.3
iter:  760  13:57:57     7600.00     -15.7
iter:  761  13:57:58     7610.00     -15.1
iter:  762  13:57:58     7620.00     -15.6
iter:  763  13:57:58     7630.00     -15.4
iter:  764  13:57:59     7640.00     -14.8
iter:  765  13:57:59     7650.00     -15.4
iter:  766  13:58:00     7660.00     -14.7
iter:  767  13:58:00     7670.00     -14.5
iter:  768  13:58:00     7680.00     -15.0
iter:  769  13:58:01     7690.00     -15.2
iter:  770  13:58:01     7700.00     -15.5
iter:  771  13:58:01     7710.00     -15.1
iter:  772  13:58:02     7720.00     -14.7
iter:  773  13:58:02     7730.00     -14.8
iter:  774  13:58:02     7740.00     -15.0
iter:  775  13:58:03     7750.00     -14.9
iter:  776  13:58:03     7760.00     -15.1
iter:  777  13:58:04     7770.00     -15.0
iter:  778  13:58:04     7780.00     -14.9
iter:  779  13:58:04     7790.00     -15.3
iter:  780  13:58:05     7800.00     -15.4
iter:  781  13:58:05     7810.00     -15.6
iter:  782  13:58:05     7820.00     -15.5
iter:  783  13:58:06     7830.00     -14.7
iter:  784  13:58:06     7840.00     -14.7
iter:  785  13:58:06     7850.00     -15.5
iter:  786  13:58:07     7860.00     -14.8
iter:  787  13:58:07     7870.00     -14.9
iter:  788  13:58:08     7880.00     -14.7
iter:  789  13:58:08     7890.00     -15.0
iter:  790  13:58:08     7900.00     -15.3
iter:  791  13:58:09     7910.00     -15.3
iter:  792  13:58:09     7920.00     -14.8
iter:  793  13:58:09     7930.00     -15.1
iter:  794  13:58:10     7940.00     -14.9
iter:  795  13:58:10     7950.00     -15.7
iter:  796  13:58:11     7960.00     -15.0
iter:  797  13:58:11     7970.00     -15.0
iter:  798  13:58:11     7980.00     -15.3
iter:  799  13:58:12     7990.00     -15.0
iter:  800  13:58:12     8000.00     -15.5
iter:  801  13:58:12     8010.00     -14.7
iter:  802  13:58:13     8020.00     -15.0
iter:  803  13:58:13     8030.00     -15.9
iter:  804  13:58:13     8040.00     -14.6
iter:  805  13:58:14     8050.00     -15.5
iter:  806  13:58:14     8060.00     -14.9
iter:  807  13:58:15     8070.00     -15.2
iter:  808  13:58:15     8080.00     -15.3
iter:  809  13:58:15     8090.00     -15.2
iter:  810  13:58:16     8100.00     -15.1
iter:  811  13:58:16     8110.00     -15.0
iter:  812  13:58:16     8120.00     -15.1
iter:  813  13:58:17     8130.00     -15.7
iter:  814  13:58:17     8140.00     -14.8
iter:  815  13:58:17     8150.00     -14.6
iter:  816  13:58:18     8160.00     -15.0
iter:  817  13:58:18     8170.00     -14.9
iter:  818  13:58:19     8180.00     -15.1
iter:  819  13:58:19     8190.00     -14.7
iter:  820  13:58:19     8200.00     -15.3
iter:  821  13:58:20     8210.00     -15.1
iter:  822  13:58:20     8220.00     -15.1
iter:  823  13:58:20     8230.00     -15.3
iter:  824  13:58:21     8240.00     -15.1
iter:  825  13:58:21     8250.00     -15.5
iter:  826  13:58:22     8260.00     -15.6
iter:  827  13:58:22     8270.00     -15.1
iter:  828  13:58:22     8280.00     -15.1
iter:  829  13:58:23     8290.00     -15.1
iter:  830  13:58:23     8300.00     -15.6
iter:  831  13:58:23     8310.00     -15.4
iter:  832  13:58:24     8320.00     -15.4
iter:  833  13:58:24     8330.00     -14.8
iter:  834  13:58:24     8340.00     -15.0
iter:  835  13:58:25     8350.00     -15.2
iter:  836  13:58:25     8360.00     -14.8
iter:  837  13:58:26     8370.00     -14.8
iter:  838  13:58:26     8380.00     -15.7
iter:  839  13:58:26     8390.00     -15.0
iter:  840  13:58:27     8400.00     -15.0
iter:  841  13:58:27     8410.00     -15.1
iter:  842  13:58:27     8420.00     -15.4
iter:  843  13:58:28     8430.00     -15.7
iter:  844  13:58:28     8440.00     -14.7
iter:  845  13:58:28     8450.00     -14.9
iter:  846  13:58:29     8460.00     -15.2
iter:  847  13:58:29     8470.00     -14.8
iter:  848  13:58:30     8480.00     -15.3
iter:  849  13:58:30     8490.00     -14.6
iter:  850  13:58:30     8500.00     -14.9
iter:  851  13:58:31     8510.00     -15.0
iter:  852  13:58:31     8520.00     -15.0
iter:  853  13:58:31     8530.00     -15.3
iter:  854  13:58:32     8540.00     -14.8
iter:  855  13:58:32     8550.00     -14.9
iter:  856  13:58:32     8560.00     -15.0
iter:  857  13:58:33     8570.00     -14.9
iter:  858  13:58:33     8580.00     -15.2
iter:  859  13:58:34     8590.00     -14.9
iter:  860  13:58:34     8600.00     -14.8
iter:  861  13:58:34     8610.00     -15.4
iter:  862  13:58:35     8620.00     -15.9
iter:  863  13:58:35     8630.00     -15.6
iter:  864  13:58:35     8640.00     -15.1
iter:  865  13:58:36     8650.00     -14.8
iter:  866  13:58:36     8660.00     -15.2
iter:  867  13:58:36     8670.00     -15.1
iter:  868  13:58:37     8680.00     -15.0
iter:  869  13:58:37     8690.00     -15.1
iter:  870  13:58:38     8700.00     -14.6
iter:  871  13:58:38     8710.00     -15.3
iter:  872  13:58:38     8720.00     -15.0
iter:  873  13:58:39     8730.00     -14.9
iter:  874  13:58:39     8740.00     -15.0
iter:  875  13:58:39     8750.00     -14.6
iter:  876  13:58:40     8760.00     -15.0
iter:  877  13:58:40     8770.00     -15.0
iter:  878  13:58:41     8780.00     -15.3
iter:  879  13:58:41     8790.00     -14.8
iter:  880  13:58:41     8800.00     -15.5
iter:  881  13:58:42     8810.00     -15.3
iter:  882  13:58:42     8820.00     -15.1
iter:  883  13:58:42     8830.00     -15.3
iter:  884  13:58:43     8840.00     -15.6
iter:  885  13:58:43     8850.00     -15.0
iter:  886  13:58:43     8860.00     -15.0
iter:  887  13:58:44     8870.00     -14.6
iter:  888  13:58:44     8880.00     -15.5
iter:  889  13:58:45     8890.00     -15.3
iter:  890  13:58:45     8900.00     -14.8
iter:  891  13:58:45     8910.00     -14.5
iter:  892  13:58:46     8920.00     -14.6
iter:  893  13:58:46     8930.00     -14.8
iter:  894  13:58:46     8940.00     -15.2
iter:  895  13:58:47     8950.00     -15.4
iter:  896  13:58:47     8960.00     -15.0
iter:  897  13:58:47     8970.00     -14.7
iter:  898  13:58:48     8980.00     -14.9
iter:  899  13:58:48     8990.00     -14.9
iter:  900  13:58:49     9000.00     -14.6
iter:  901  13:58:49     9010.00     -15.9
iter:  902  13:58:49     9020.00     -14.9
iter:  903  13:58:50     9030.00     -14.6
iter:  904  13:58:50     9040.00     -14.7
iter:  905  13:58:51     9050.00     -15.3
iter:  906  13:58:51     9060.00     -15.3
iter:  907  13:58:51     9070.00     -15.4
iter:  908  13:58:52     9080.00     -14.9
iter:  909  13:58:52     9090.00     -15.5
iter:  910  13:58:52     9100.00     -16.0
iter:  911  13:58:53     9110.00     -15.0
iter:  912  13:58:53     9120.00     -14.8
iter:  913  13:58:54     9130.00     -15.3
iter:  914  13:58:54     9140.00     -15.0
iter:  915  13:58:54     9150.00     -15.7
iter:  916  13:58:55     9160.00     -15.3
iter:  917  13:58:55     9170.00     -14.9
iter:  918  13:58:55     9180.00     -15.1
iter:  919  13:58:56     9190.00     -15.4
iter:  920  13:58:56     9200.00     -15.0
iter:  921  13:58:56     9210.00     -14.8
iter:  922  13:58:57     9220.00     -15.0
iter:  923  13:58:57     9230.00     -14.7
iter:  924  13:58:58     9240.00     -14.9
iter:  925  13:58:58     9250.00     -15.3
iter:  926  13:58:58     9260.00     -15.8
iter:  927  13:58:59     9270.00     -15.0
iter:  928  13:58:59     9280.00     -14.7
iter:  929  13:58:59     9290.00     -15.3
iter:  930  13:59:00     9300.00     -14.8
iter:  931  13:59:00     9310.00     -15.1
iter:  932  13:59:00     9320.00     -14.9
iter:  933  13:59:01     9330.00     -15.0
iter:  934  13:59:01     9340.00     -15.2
iter:  935  13:59:02     9350.00     -14.9
iter:  936  13:59:02     9360.00     -15.2
iter:  937  13:59:02     9370.00     -14.6
iter:  938  13:59:03     9380.00     -15.6
iter:  939  13:59:03     9390.00     -15.8
iter:  940  13:59:03     9400.00     -15.1
iter:  941  13:59:04     9410.00     -15.2
iter:  942  13:59:04     9420.00     -15.0
iter:  943  13:59:04     9430.00     -15.5
iter:  944  13:59:05     9440.00     -15.0
iter:  945  13:59:05     9450.00     -14.8
iter:  946  13:59:06     9460.00     -14.7
iter:  947  13:59:06     9470.00     -14.8
iter:  948  13:59:06     9480.00     -15.3
iter:  949  13:59:07     9490.00     -15.1
iter:  950  13:59:07     9500.00     -15.0
iter:  951  13:59:07     9510.00     -15.2
iter:  952  13:59:08     9520.00     -14.7
iter:  953  13:59:08     9530.00     -15.6
iter:  954  13:59:08     9540.00     -15.9
iter:  955  13:59:09     9550.00     -15.5
iter:  956  13:59:09     9560.00     -15.1
iter:  957  13:59:10     9570.00     -15.0
iter:  958  13:59:10     9580.00     -15.6
iter:  959  13:59:10     9590.00     -15.6
iter:  960  13:59:11     9600.00     -15.1
iter:  961  13:59:11     9610.00     -15.3
iter:  962  13:59:11     9620.00     -15.0
iter:  963  13:59:12     9630.00     -14.7
iter:  964  13:59:12     9640.00     -15.1
iter:  965  13:59:12     9650.00     -15.0
iter:  966  13:59:13     9660.00     -14.8
iter:  967  13:59:13     9670.00     -15.5
iter:  968  13:59:14     9680.00     -15.5
iter:  969  13:59:14     9690.00     -15.0
iter:  970  13:59:14     9700.00     -14.9
iter:  971  13:59:15     9710.00     -15.0
iter:  972  13:59:15     9720.00     -14.8
iter:  973  13:59:15     9730.00     -15.3
iter:  974  13:59:16     9740.00     -15.6
iter:  975  13:59:16     9750.00     -15.5
iter:  976  13:59:17     9760.00     -15.0
iter:  977  13:59:17     9770.00     -15.0
iter:  978  13:59:17     9780.00     -15.9
iter:  979  13:59:18     9790.00     -15.7
iter:  980  13:59:18     9800.00     -14.8
iter:  981  13:59:18     9810.00     -14.9
iter:  982  13:59:19     9820.00     -14.8
iter:  983  13:59:19     9830.00     -14.9
iter:  984  13:59:19     9840.00     -15.0
iter:  985  13:59:20     9850.00     -15.5
iter:  986  13:59:20     9860.00     -14.8
iter:  987  13:59:21     9870.00     -14.7
iter:  988  13:59:21     9880.00     -15.6
iter:  989  13:59:21     9890.00     -14.7
iter:  990  13:59:22     9900.00     -15.2
iter:  991  13:59:22     9910.00     -15.3
iter:  992  13:59:23     9920.00     -14.7
iter:  993  13:59:23     9930.00     -15.0
iter:  994  13:59:23     9940.00     -15.2
iter:  995  13:59:24     9950.00     -14.7
iter:  996  13:59:24     9960.00     -15.1
iter:  997  13:59:24     9970.00     -15.0
iter:  998  13:59:25     9980.00     -15.1
iter:  999  13:59:25     9990.00     -15.1
iter: 1000  13:59:26    10000.00     -15.4
iter: 1001  13:59:26    10010.00     -14.7
iter: 1002  13:59:26    10020.00     -15.1
iter: 1003  13:59:27    10030.00     -15.6
iter: 1004  13:59:27    10040.00     -15.2
iter: 1005  13:59:27    10050.00     -15.9
iter: 1006  13:59:28    10060.00     -15.3
iter: 1007  13:59:28    10070.00     -15.2
iter: 1008  13:59:28    10080.00     -14.7
iter: 1009  13:59:29    10090.00     -14.9
iter: 1010  13:59:29    10100.00     -14.9
iter: 1011  13:59:30    10110.00     -15.8
iter: 1012  13:59:30    10120.00     -15.4
iter: 1013  13:59:30    10130.00     -15.1
iter: 1014  13:59:31    10140.00     -15.4
iter: 1015  13:59:31    10150.00     -15.5
iter: 1016  13:59:31    10160.00     -14.6
iter: 1017  13:59:32    10170.00     -15.5
iter: 1018  13:59:32    10180.00     -15.1
iter: 1019  13:59:32    10190.00     -15.4
iter: 1020  13:59:33    10200.00     -15.0
iter: 1021  13:59:33    10210.00     -14.8
iter: 1022  13:59:34    10220.00     -14.7
iter: 1023  13:59:34    10230.00     -14.8
iter: 1024  13:59:34    10240.00     -15.1
iter: 1025  13:59:35    10250.00     -14.7
iter: 1026  13:59:35    10260.00     -14.8
iter: 1027  13:59:35    10270.00     -15.0
iter: 1028  13:59:36    10280.00     -15.7
iter: 1029  13:59:36    10290.00     -14.8
iter: 1030  13:59:36    10300.00     -15.2
iter: 1031  13:59:37    10310.00     -14.8
iter: 1032  13:59:37    10320.00     -15.1
iter: 1033  13:59:38    10330.00     -14.7
iter: 1034  13:59:38    10340.00     -15.1
iter: 1035  13:59:38    10350.00     -15.1
iter: 1036  13:59:39    10360.00     -14.8
iter: 1037  13:59:39    10370.00     -15.9
iter: 1038  13:59:39    10380.00     -14.9
iter: 1039  13:59:40    10390.00     -15.4
iter: 1040  13:59:40    10400.00     -14.9
iter: 1041  13:59:40    10410.00     -15.0
iter: 1042  13:59:41    10420.00     -14.9
iter: 1043  13:59:41    10430.00     -14.6
iter: 1044  13:59:42    10440.00     -15.5
iter: 1045  13:59:42    10450.00     -15.0
iter: 1046  13:59:42    10460.00     -14.8
iter: 1047  13:59:43    10470.00     -14.8
iter: 1048  13:59:43    10480.00     -14.8
iter: 1049  13:59:43    10490.00     -14.7
iter: 1050  13:59:44    10500.00     -15.0
iter: 1051  13:59:44    10510.00     -15.0
iter: 1052  13:59:44    10520.00     -14.6
iter: 1053  13:59:45    10530.00     -15.6
iter: 1054  13:59:45    10540.00     -14.6
iter: 1055  13:59:46    10550.00     -14.8
iter: 1056  13:59:46    10560.00     -15.4
iter: 1057  13:59:46    10570.00     -14.5
iter: 1058  13:59:47    10580.00     -15.0
iter: 1059  13:59:47    10590.00     -15.0
iter: 1060  13:59:47    10600.00     -15.6
iter: 1061  13:59:48    10610.00     -15.0
iter: 1062  13:59:48    10620.00     -15.0
iter: 1063  13:59:48    10630.00     -14.9
iter: 1064  13:59:49    10640.00     -15.0
iter: 1065  13:59:49    10650.00     -15.3
iter: 1066  13:59:50    10660.00     -14.5
iter: 1067  13:59:50    10670.00     -15.3
iter: 1068  13:59:50    10680.00     -15.1
iter: 1069  13:59:51    10690.00     -15.1
iter: 1070  13:59:51    10700.00     -15.6
iter: 1071  13:59:51    10710.00     -15.0
iter: 1072  13:59:52    10720.00     -14.5
iter: 1073  13:59:52    10730.00     -14.8
iter: 1074  13:59:52    10740.00     -14.6
iter: 1075  13:59:53    10750.00     -14.9
iter: 1076  13:59:53    10760.00     -15.2
iter: 1077  13:59:54    10770.00     -14.8
iter: 1078  13:59:54    10780.00     -15.7
iter: 1079  13:59:54    10790.00     -15.1
iter: 1080  13:59:55    10800.00     -14.8
iter: 1081  13:59:55    10810.00     -14.9
iter: 1082  13:59:55    10820.00     -15.8
iter: 1083  13:59:56    10830.00     -15.2
iter: 1084  13:59:56    10840.00     -15.9
iter: 1085  13:59:56    10850.00     -14.9
iter: 1086  13:59:57    10860.00     -15.2
iter: 1087  13:59:57    10870.00     -15.1
iter: 1088  13:59:58    10880.00     -15.1
iter: 1089  13:59:58    10890.00     -15.0
iter: 1090  13:59:58    10900.00     -15.1
iter: 1091  13:59:59    10910.00     -14.6
iter: 1092  13:59:59    10920.00     -14.8
iter: 1093  13:59:59    10930.00     -14.7
iter: 1094  14:00:00    10940.00     -15.7
iter: 1095  14:00:00    10950.00     -15.6
iter: 1096  14:00:00    10960.00     -15.0
iter: 1097  14:00:01    10970.00     -14.7
iter: 1098  14:00:01    10980.00     -14.7
iter: 1099  14:00:02    10990.00     -15.4
iter: 1100  14:00:02    11000.00     -14.8
iter: 1101  14:00:02    11010.00     -15.5
iter: 1102  14:00:03    11020.00     -14.6
iter: 1103  14:00:03    11030.00     -14.8
iter: 1104  14:00:03    11040.00     -15.3
iter: 1105  14:00:04    11050.00     -15.0
iter: 1106  14:00:04    11060.00     -15.5
iter: 1107  14:00:04    11070.00     -15.2
iter: 1108  14:00:05    11080.00     -15.2
iter: 1109  14:00:05    11090.00     -15.0
iter: 1110  14:00:06    11100.00     -15.5
iter: 1111  14:00:06    11110.00     -15.0
iter: 1112  14:00:06    11120.00     -15.2
iter: 1113  14:00:07    11130.00     -15.3
iter: 1114  14:00:07    11140.00     -15.1
iter: 1115  14:00:07    11150.00     -15.1
iter: 1116  14:00:08    11160.00     -15.2
iter: 1117  14:00:08    11170.00     -14.7
iter: 1118  14:00:08    11180.00     -14.9
iter: 1119  14:00:09    11190.00     -15.4
iter: 1120  14:00:09    11200.00     -14.9
iter: 1121  14:00:10    11210.00     -14.9
iter: 1122  14:00:10    11220.00     -14.9
iter: 1123  14:00:10    11230.00     -15.2
iter: 1124  14:00:11    11240.00     -14.8
iter: 1125  14:00:11    11250.00     -15.2
iter: 1126  14:00:11    11260.00     -14.9
iter: 1127  14:00:12    11270.00     -15.2
iter: 1128  14:00:12    11280.00     -15.3
iter: 1129  14:00:12    11290.00     -14.8
iter: 1130  14:00:13    11300.00     -15.5
iter: 1131  14:00:13    11310.00     -15.4
iter: 1132  14:00:14    11320.00     -14.9
iter: 1133  14:00:14    11330.00     -15.5
iter: 1134  14:00:14    11340.00     -15.0
iter: 1135  14:00:15    11350.00     -15.8
iter: 1136  14:00:15    11360.00     -14.9
iter: 1137  14:00:15    11370.00     -14.6
iter: 1138  14:00:16    11380.00     -14.8
iter: 1139  14:00:16    11390.00     -15.3
iter: 1140  14:00:16    11400.00     -15.3
iter: 1141  14:00:17    11410.00     -15.0
iter: 1142  14:00:17    11420.00     -14.9
iter: 1143  14:00:18    11430.00     -15.6
iter: 1144  14:00:18    11440.00     -14.9
iter: 1145  14:00:18    11450.00     -15.0
iter: 1146  14:00:19    11460.00     -15.1
iter: 1147  14:00:19    11470.00     -14.9
iter: 1148  14:00:19    11480.00     -14.8
iter: 1149  14:00:20    11490.00     -14.8
iter: 1150  14:00:20    11500.00     -14.8
iter: 1151  14:00:21    11510.00     -15.0
iter: 1152  14:00:21    11520.00     -14.7
iter: 1153  14:00:21    11530.00     -14.9
iter: 1154  14:00:22    11540.00     -15.0
iter: 1155  14:00:22    11550.00     -15.0
iter: 1156  14:00:22    11560.00     -15.3
iter: 1157  14:00:23    11570.00     -15.5
iter: 1158  14:00:23    11580.00     -15.2
iter: 1159  14:00:23    11590.00     -15.9
iter: 1160  14:00:24    11600.00     -14.8
iter: 1161  14:00:24    11610.00     -15.0
iter: 1162  14:00:25    11620.00     -15.2
iter: 1163  14:00:25    11630.00     -14.8
iter: 1164  14:00:25    11640.00     -15.3
iter: 1165  14:00:26    11650.00     -14.8
iter: 1166  14:00:26    11660.00     -14.9
iter: 1167  14:00:26    11670.00     -14.9
iter: 1168  14:00:27    11680.00     -15.2
iter: 1169  14:00:27    11690.00     -14.7
iter: 1170  14:00:27    11700.00     -15.1
iter: 1171  14:00:28    11710.00     -14.9
iter: 1172  14:00:28    11720.00     -15.1
iter: 1173  14:00:29    11730.00     -15.2
iter: 1174  14:00:29    11740.00     -15.6
iter: 1175  14:00:29    11750.00     -14.5
iter: 1176  14:00:30    11760.00     -15.3
iter: 1177  14:00:30    11770.00     -14.6
iter: 1178  14:00:30    11780.00     -15.3
iter: 1179  14:00:31    11790.00     -15.3
iter: 1180  14:00:31    11800.00     -15.5
iter: 1181  14:00:31    11810.00     -15.9
iter: 1182  14:00:32    11820.00     -14.7
iter: 1183  14:00:32    11830.00     -14.7
iter: 1184  14:00:33    11840.00     -15.4
iter: 1185  14:00:33    11850.00     -14.9
iter: 1186  14:00:33    11860.00     -14.9
iter: 1187  14:00:34    11870.00     -14.8
iter: 1188  14:00:34    11880.00     -14.6
iter: 1189  14:00:34    11890.00     -15.0
iter: 1190  14:00:35    11900.00     -14.7
iter: 1191  14:00:35    11910.00     -14.6
iter: 1192  14:00:35    11920.00     -14.9
iter: 1193  14:00:36    11930.00     -14.8
iter: 1194  14:00:36    11940.00     -14.9
iter: 1195  14:00:37    11950.00     -15.2
iter: 1196  14:00:37    11960.00     -16.0
iter: 1197  14:00:37    11970.00     -14.7
iter: 1198  14:00:38    11980.00     -14.6
iter: 1199  14:00:38    11990.00     -14.6
iter: 1200  14:00:38    12000.00     -14.9
iter: 1201  14:00:39    12010.00     -14.8
iter: 1202  14:00:39    12020.00     -14.8
iter: 1203  14:00:39    12030.00     -15.5
iter: 1204  14:00:40    12040.00     -15.1
iter: 1205  14:00:40    12050.00     -14.8
iter: 1206  14:00:41    12060.00     -15.1
iter: 1207  14:00:41    12070.00     -14.8
iter: 1208  14:00:41    12080.00     -14.7
iter: 1209  14:00:42    12090.00     -14.9
iter: 1210  14:00:42    12100.00     -15.3
iter: 1211  14:00:42    12110.00     -15.5
iter: 1212  14:00:43    12120.00     -15.2
iter: 1213  14:00:43    12130.00     -15.5
iter: 1214  14:00:43    12140.00     -15.2
iter: 1215  14:00:44    12150.00     -14.9
iter: 1216  14:00:44    12160.00     -15.1
iter: 1217  14:00:45    12170.00     -15.2
iter: 1218  14:00:45    12180.00     -14.6
iter: 1219  14:00:45    12190.00     -14.9
iter: 1220  14:00:46    12200.00     -15.4
iter: 1221  14:00:46    12210.00     -15.2
iter: 1222  14:00:46    12220.00     -14.8
iter: 1223  14:00:47    12230.00     -15.4
iter: 1224  14:00:47    12240.00     -15.0
iter: 1225  14:00:47    12250.00     -15.7
iter: 1226  14:00:48    12260.00     -14.7
iter: 1227  14:00:48    12270.00     -15.1
iter: 1228  14:00:49    12280.00     -15.4
iter: 1229  14:00:49    12290.00     -14.8
iter: 1230  14:00:49    12300.00     -14.8
iter: 1231  14:00:50    12310.00     -16.0
iter: 1232  14:00:50    12320.00     -15.5
iter: 1233  14:00:50    12330.00     -15.0
iter: 1234  14:00:51    12340.00     -15.1
iter: 1235  14:00:51    12350.00     -14.7
iter: 1236  14:00:51    12360.00     -15.7
iter: 1237  14:00:52    12370.00     -15.2
iter: 1238  14:00:52    12380.00     -15.4
iter: 1239  14:00:53    12390.00     -15.0
iter: 1240  14:00:53    12400.00     -14.9
iter: 1241  14:00:53    12410.00     -16.0
iter: 1242  14:00:54    12420.00     -14.8
iter: 1243  14:00:54    12430.00     -15.2
iter: 1244  14:00:54    12440.00     -15.1
iter: 1245  14:00:55    12450.00     -15.3
iter: 1246  14:00:55    12460.00     -15.4
iter: 1247  14:00:55    12470.00     -15.0
iter: 1248  14:00:56    12480.00     -15.3
iter: 1249  14:00:56    12490.00     -15.4
iter: 1250  14:00:57    12500.00     -15.3
iter: 1251  14:00:57    12510.00     -14.9
iter: 1252  14:00:57    12520.00     -15.2
iter: 1253  14:00:58    12530.00     -15.4
iter: 1254  14:00:58    12540.00     -15.1
iter: 1255  14:00:58    12550.00     -15.3
iter: 1256  14:00:59    12560.00     -14.7
iter: 1257  14:00:59    12570.00     -15.3
iter: 1258  14:00:59    12580.00     -15.6
iter: 1259  14:01:00    12590.00     -15.0
iter: 1260  14:01:00    12600.00     -14.8
iter: 1261  14:01:01    12610.00     -14.8
iter: 1262  14:01:01    12620.00     -14.7
iter: 1263  14:01:01    12630.00     -14.9
iter: 1264  14:01:02    12640.00     -14.6
iter: 1265  14:01:02    12650.00     -15.1
iter: 1266  14:01:02    12660.00     -15.3
iter: 1267  14:01:03    12670.00     -14.9
iter: 1268  14:01:03    12680.00     -15.2
iter: 1269  14:01:03    12690.00     -14.8
iter: 1270  14:01:04    12700.00     -14.7
iter: 1271  14:01:04    12710.00     -15.4
iter: 1272  14:01:05    12720.00     -15.7
iter: 1273  14:01:05    12730.00     -14.9
iter: 1274  14:01:05    12740.00     -14.9
iter: 1275  14:01:06    12750.00     -15.0
iter: 1276  14:01:06    12760.00     -14.9
iter: 1277  14:01:06    12770.00     -14.5
iter: 1278  14:01:07    12780.00     -15.5
iter: 1279  14:01:07    12790.00     -14.9
iter: 1280  14:01:07    12800.00     -14.7
iter: 1281  14:01:08    12810.00     -15.1
iter: 1282  14:01:08    12820.00     -14.8
iter: 1283  14:01:09    12830.00     -15.6
iter: 1284  14:01:09    12840.00     -15.2
iter: 1285  14:01:09    12850.00     -15.0
iter: 1286  14:01:10    12860.00     -15.4
iter: 1287  14:01:10    12870.00     -14.9
iter: 1288  14:01:10    12880.00     -14.7
iter: 1289  14:01:11    12890.00     -15.5
iter: 1290  14:01:11    12900.00     -14.6
iter: 1291  14:01:11    12910.00     -14.9
iter: 1292  14:01:12    12920.00     -14.7
iter: 1293  14:01:12    12930.00     -14.8
iter: 1294  14:01:13    12940.00     -14.8
iter: 1295  14:01:13    12950.00     -15.1
iter: 1296  14:01:13    12960.00     -14.8
iter: 1297  14:01:14    12970.00     -15.2
iter: 1298  14:01:14    12980.00     -15.2
iter: 1299  14:01:14    12990.00     -15.5
iter: 1300  14:01:15    13000.00     -15.5
iter: 1301  14:01:15    13010.00     -15.3
iter: 1302  14:01:15    13020.00     -14.7
iter: 1303  14:01:16    13030.00     -14.8
iter: 1304  14:01:16    13040.00     -14.8
iter: 1305  14:01:17    13050.00     -14.9
iter: 1306  14:01:17    13060.00     -14.8
iter: 1307  14:01:17    13070.00     -14.8
iter: 1308  14:01:18    13080.00     -15.0
iter: 1309  14:01:18    13090.00     -15.9
iter: 1310  14:01:18    13100.00     -15.5
iter: 1311  14:01:19    13110.00     -15.0
iter: 1312  14:01:19    13120.00     -16.0
iter: 1313  14:01:19    13130.00     -14.9
iter: 1314  14:01:20    13140.00     -14.9
iter: 1315  14:01:20    13150.00     -14.7
iter: 1316  14:01:21    13160.00     -14.6
iter: 1317  14:01:21    13170.00     -15.5
iter: 1318  14:01:21    13180.00     -15.0
iter: 1319  14:01:22    13190.00     -15.4
iter: 1320  14:01:22    13200.00     -14.9
iter: 1321  14:01:22    13210.00     -15.0
iter: 1322  14:01:23    13220.00     -14.9
iter: 1323  14:01:23    13230.00     -14.8
iter: 1324  14:01:23    13240.00     -14.5
iter: 1325  14:01:24    13250.00     -14.9
iter: 1326  14:01:24    13260.00     -15.9
iter: 1327  14:01:25    13270.00     -14.6
iter: 1328  14:01:25    13280.00     -14.7
iter: 1329  14:01:25    13290.00     -15.4
iter: 1330  14:01:26    13300.00     -14.8
iter: 1331  14:01:26    13310.00     -15.3
iter: 1332  14:01:26    13320.00     -15.4
iter: 1333  14:01:27    13330.00     -14.8
iter: 1334  14:01:27    13340.00     -15.8
iter: 1335  14:01:27    13350.00     -15.5
iter: 1336  14:01:28    13360.00     -14.9
iter: 1337  14:01:28    13370.00     -15.0
iter: 1338  14:01:29    13380.00     -15.0
iter: 1339  14:01:29    13390.00     -14.6
iter: 1340  14:01:29    13400.00     -15.1
iter: 1341  14:01:30    13410.00     -15.0
iter: 1342  14:01:30    13420.00     -14.8
iter: 1343  14:01:30    13430.00     -14.9
iter: 1344  14:01:31    13440.00     -15.8
iter: 1345  14:01:31    13450.00     -15.2
iter: 1346  14:01:32    13460.00     -14.7
iter: 1347  14:01:32    13470.00     -15.2
iter: 1348  14:01:32    13480.00     -15.1
iter: 1349  14:01:33    13490.00     -15.4
iter: 1350  14:01:33    13500.00     -15.9
iter: 1351  14:01:33    13510.00     -14.8
iter: 1352  14:01:34    13520.00     -15.8
iter: 1353  14:01:34    13530.00     -15.2
iter: 1354  14:01:34    13540.00     -15.5
iter: 1355  14:01:35    13550.00     -15.2
iter: 1356  14:01:35    13560.00     -15.0
iter: 1357  14:01:36    13570.00     -14.8
iter: 1358  14:01:36    13580.00     -15.6
iter: 1359  14:01:36    13590.00     -15.0
iter: 1360  14:01:37    13600.00     -14.7
iter: 1361  14:01:37    13610.00     -15.0
iter: 1362  14:01:37    13620.00     -14.8
iter: 1363  14:01:38    13630.00     -14.9
iter: 1364  14:01:38    13640.00     -15.5
iter: 1365  14:01:38    13650.00     -15.1
iter: 1366  14:01:39    13660.00     -14.6
iter: 1367  14:01:39    13670.00     -15.1
iter: 1368  14:01:40    13680.00     -15.7
iter: 1369  14:01:40    13690.00     -15.0
iter: 1370  14:01:40    13700.00     -15.5
iter: 1371  14:01:41    13710.00     -16.0
iter: 1372  14:01:41    13720.00     -15.2
iter: 1373  14:01:41    13730.00     -15.0
iter: 1374  14:01:42    13740.00     -15.0
iter: 1375  14:01:42    13750.00     -15.1
iter: 1376  14:01:42    13760.00     -14.9
iter: 1377  14:01:43    13770.00     -15.1
iter: 1378  14:01:43    13780.00     -14.7
iter: 1379  14:01:44    13790.00     -14.7
iter: 1380  14:01:44    13800.00     -15.9
iter: 1381  14:01:44    13810.00     -15.0
iter: 1382  14:01:45    13820.00     -15.1
iter: 1383  14:01:45    13830.00     -15.6
iter: 1384  14:01:45    13840.00     -14.9
iter: 1385  14:01:46    13850.00     -14.8
iter: 1386  14:01:46    13860.00     -15.2
iter: 1387  14:01:46    13870.00     -15.4
iter: 1388  14:01:47    13880.00     -15.7
iter: 1389  14:01:47    13890.00     -14.8
iter: 1390  14:01:48    13900.00     -14.7
iter: 1391  14:01:48    13910.00     -14.7
iter: 1392  14:01:48    13920.00     -15.1
iter: 1393  14:01:49    13930.00     -15.2
iter: 1394  14:01:49    13940.00     -15.7
iter: 1395  14:01:49    13950.00     -15.2
iter: 1396  14:01:50    13960.00     -15.3
iter: 1397  14:01:50    13970.00     -14.9
iter: 1398  14:01:50    13980.00     -14.7
iter: 1399  14:01:51    13990.00     -15.5
iter: 1400  14:01:51    14000.00     -15.9
iter: 1401  14:01:52    14010.00     -14.6
iter: 1402  14:01:52    14020.00     -15.8
iter: 1403  14:01:52    14030.00     -15.9
iter: 1404  14:01:53    14040.00     -15.8
iter: 1405  14:01:53    14050.00     -14.7
iter: 1406  14:01:53    14060.00     -14.8
iter: 1407  14:01:54    14070.00     -15.5
iter: 1408  14:01:54    14080.00     -14.9
iter: 1409  14:01:54    14090.00     -14.8
iter: 1410  14:01:55    14100.00     -14.7
iter: 1411  14:01:55    14110.00     -15.2
iter: 1412  14:01:56    14120.00     -15.2
iter: 1413  14:01:56    14130.00     -15.3
iter: 1414  14:01:56    14140.00     -14.7
iter: 1415  14:01:57    14150.00     -14.6
iter: 1416  14:01:57    14160.00     -15.1
iter: 1417  14:01:57    14170.00     -14.9
iter: 1418  14:01:58    14180.00     -14.6
iter: 1419  14:01:58    14190.00     -15.1
iter: 1420  14:01:58    14200.00     -14.8
iter: 1421  14:01:59    14210.00     -15.0
iter: 1422  14:01:59    14220.00     -14.5
iter: 1423  14:02:00    14230.00     -14.9
iter: 1424  14:02:00    14240.00     -14.9
iter: 1425  14:02:00    14250.00     -15.0
iter: 1426  14:02:01    14260.00     -15.5
iter: 1427  14:02:01    14270.00     -15.0
iter: 1428  14:02:01    14280.00     -14.9
iter: 1429  14:02:02    14290.00     -15.0
iter: 1430  14:02:02    14300.00     -15.3
iter: 1431  14:02:02    14310.00     -14.7
iter: 1432  14:02:03    14320.00     -15.5
iter: 1433  14:02:03    14330.00     -15.8
iter: 1434  14:02:04    14340.00     -15.9
iter: 1435  14:02:04    14350.00     -15.3
iter: 1436  14:02:04    14360.00     -14.8
iter: 1437  14:02:05    14370.00     -15.5
iter: 1438  14:02:05    14380.00     -14.8
iter: 1439  14:02:05    14390.00     -14.9
iter: 1440  14:02:06    14400.00     -15.4
iter: 1441  14:02:06    14410.00     -14.8
iter: 1442  14:02:06    14420.00     -14.9
iter: 1443  14:02:07    14430.00     -15.0
iter: 1444  14:02:07    14440.00     -14.9
iter: 1445  14:02:08    14450.00     -14.8
iter: 1446  14:02:08    14460.00     -15.7
iter: 1447  14:02:08    14470.00     -15.4
iter: 1448  14:02:09    14480.00     -14.6
iter: 1449  14:02:09    14490.00     -15.2
iter: 1450  14:02:09    14500.00     -14.7
iter: 1451  14:02:10    14510.00     -14.9
iter: 1452  14:02:10    14520.00     -15.9
iter: 1453  14:02:10    14530.00     -15.5
iter: 1454  14:02:11    14540.00     -15.1
iter: 1455  14:02:11    14550.00     -14.7
iter: 1456  14:02:12    14560.00     -16.0
iter: 1457  14:02:12    14570.00     -14.8
iter: 1458  14:02:12    14580.00     -15.6
iter: 1459  14:02:13    14590.00     -14.8
iter: 1460  14:02:13    14600.00     -14.5
iter: 1461  14:02:13    14610.00     -16.0
iter: 1462  14:02:14    14620.00     -15.7
iter: 1463  14:02:14    14630.00     -15.1
iter: 1464  14:02:14    14640.00     -14.9
iter: 1465  14:02:15    14650.00     -15.2
iter: 1466  14:02:15    14660.00     -14.8
iter: 1467  14:02:16    14670.00     -15.2
iter: 1468  14:02:16    14680.00     -14.7
iter: 1469  14:02:16    14690.00     -14.7
iter: 1470  14:02:17    14700.00     -15.6
iter: 1471  14:02:17    14710.00     -15.9
iter: 1472  14:02:17    14720.00     -15.3
iter: 1473  14:02:18    14730.00     -14.7
iter: 1474  14:02:18    14740.00     -14.9
iter: 1475  14:02:18    14750.00     -15.9
iter: 1476  14:02:19    14760.00     -14.7
iter: 1477  14:02:19    14770.00     -14.9
iter: 1478  14:02:20    14780.00     -14.9
iter: 1479  14:02:20    14790.00     -14.7
iter: 1480  14:02:20    14800.00     -15.1
iter: 1481  14:02:21    14810.00     -15.4
iter: 1482  14:02:21    14820.00     -14.5
iter: 1483  14:02:21    14830.00     -14.8
iter: 1484  14:02:22    14840.00     -15.2
iter: 1485  14:02:22    14850.00     -15.1
iter: 1486  14:02:22    14860.00     -14.9
iter: 1487  14:02:23    14870.00     -14.9
iter: 1488  14:02:23    14880.00     -15.0
iter: 1489  14:02:24    14890.00     -14.8
iter: 1490  14:02:24    14900.00     -15.3
iter: 1491  14:02:24    14910.00     -15.2
iter: 1492  14:02:25    14920.00     -14.5
iter: 1493  14:02:25    14930.00     -14.7
iter: 1494  14:02:25    14940.00     -14.9
iter: 1495  14:02:26    14950.00     -15.3
iter: 1496  14:02:26    14960.00     -15.1
iter: 1497  14:02:26    14970.00     -15.5
iter: 1498  14:02:27    14980.00     -15.1
iter: 1499  14:02:27    14990.00     -15.0
iter: 1500  14:02:28    15000.00     -14.7
iter: 1501  14:02:28    15010.00     -15.8
iter: 1502  14:02:28    15020.00     -14.8
iter: 1503  14:02:29    15030.00     -15.8
iter: 1504  14:02:29    15040.00     -14.9
iter: 1505  14:02:29    15050.00     -15.0
iter: 1506  14:02:30    15060.00     -15.0
iter: 1507  14:02:30    15070.00     -14.8
iter: 1508  14:02:30    15080.00     -15.3
iter: 1509  14:02:31    15090.00     -15.0
iter: 1510  14:02:31    15100.00     -14.6
iter: 1511  14:02:32    15110.00     -15.6
iter: 1512  14:02:32    15120.00     -15.0
iter: 1513  14:02:32    15130.00     -14.8
iter: 1514  14:02:33    15140.00     -15.1
iter: 1515  14:02:33    15150.00     -15.0
iter: 1516  14:02:33    15160.00     -15.2
iter: 1517  14:02:34    15170.00     -15.6
iter: 1518  14:02:34    15180.00     -14.9
iter: 1519  14:02:34    15190.00     -14.7
iter: 1520  14:02:35    15200.00     -15.2
iter: 1521  14:02:35    15210.00     -15.1
iter: 1522  14:02:36    15220.00     -14.9
iter: 1523  14:02:36    15230.00     -14.7
iter: 1524  14:02:36    15240.00     -15.3
iter: 1525  14:02:37    15250.00     -15.2
iter: 1526  14:02:37    15260.00     -14.8
iter: 1527  14:02:37    15270.00     -15.3
iter: 1528  14:02:38    15280.00     -14.8
iter: 1529  14:02:38    15290.00     -15.0
iter: 1530  14:02:38    15300.00     -15.0
iter: 1531  14:02:39    15310.00     -14.8
iter: 1532  14:02:39    15320.00     -15.7
iter: 1533  14:02:40    15330.00     -14.9
iter: 1534  14:02:40    15340.00     -15.6
iter: 1535  14:02:40    15350.00     -14.9
iter: 1536  14:02:41    15360.00     -15.2
iter: 1537  14:02:41    15370.00     -15.3
iter: 1538  14:02:41    15380.00     -15.0
iter: 1539  14:02:42    15390.00     -15.2
iter: 1540  14:02:42    15400.00     -14.8
iter: 1541  14:02:42    15410.00     -14.9
iter: 1542  14:02:43    15420.00     -15.3
iter: 1543  14:02:43    15430.00     -15.0
iter: 1544  14:02:44    15440.00     -15.7
iter: 1545  14:02:44    15450.00     -14.7
iter: 1546  14:02:44    15460.00     -14.6
iter: 1547  14:02:45    15470.00     -15.2
iter: 1548  14:02:45    15480.00     -15.1
iter: 1549  14:02:45    15490.00     -15.3
iter: 1550  14:02:46    15500.00     -15.0
iter: 1551  14:02:46    15510.00     -15.3
iter: 1552  14:02:46    15520.00     -15.2
iter: 1553  14:02:47    15530.00     -15.0
iter: 1554  14:02:47    15540.00     -15.5
iter: 1555  14:02:48    15550.00     -15.0
iter: 1556  14:02:48    15560.00     -14.8
iter: 1557  14:02:48    15570.00     -14.7
iter: 1558  14:02:49    15580.00     -15.4
iter: 1559  14:02:49    15590.00     -15.4
iter: 1560  14:02:49    15600.00     -14.9
iter: 1561  14:02:50    15610.00     -15.2
iter: 1562  14:02:50    15620.00     -14.8
iter: 1563  14:02:50    15630.00     -15.1
iter: 1564  14:02:51    15640.00     -15.1
iter: 1565  14:02:51    15650.00     -14.6
iter: 1566  14:02:52    15660.00     -14.8
iter: 1567  14:02:52    15670.00     -15.2
iter: 1568  14:02:52    15680.00     -14.8
iter: 1569  14:02:53    15690.00     -15.5
iter: 1570  14:02:53    15700.00     -14.8
iter: 1571  14:02:53    15710.00     -14.9
iter: 1572  14:02:54    15720.00     -14.6
iter: 1573  14:02:54    15730.00     -15.0
iter: 1574  14:02:54    15740.00     -14.8
iter: 1575  14:02:55    15750.00     -14.8
iter: 1576  14:02:55    15760.00     -14.8
iter: 1577  14:02:56    15770.00     -14.6
iter: 1578  14:02:56    15780.00     -15.2
iter: 1579  14:02:56    15790.00     -14.7
iter: 1580  14:02:57    15800.00     -15.2
iter: 1581  14:02:57    15810.00     -14.8
iter: 1582  14:02:57    15820.00     -15.7
iter: 1583  14:02:58    15830.00     -15.3
iter: 1584  14:02:58    15840.00     -15.3
iter: 1585  14:02:58    15850.00     -15.0
iter: 1586  14:02:59    15860.00     -15.2
iter: 1587  14:02:59    15870.00     -15.3
iter: 1588  14:03:00    15880.00     -15.0
iter: 1589  14:03:00    15890.00     -15.8
iter: 1590  14:03:00    15900.00     -14.9
iter: 1591  14:03:01    15910.00     -15.6
iter: 1592  14:03:01    15920.00     -14.6
iter: 1593  14:03:01    15930.00     -14.9
iter: 1594  14:03:02    15940.00     -14.7
iter: 1595  14:03:02    15950.00     -15.6
iter: 1596  14:03:02    15960.00     -15.0
iter: 1597  14:03:03    15970.00     -14.8
iter: 1598  14:03:03    15980.00     -14.6
iter: 1599  14:03:04    15990.00     -14.7
iter: 1600  14:03:04    16000.00     -15.7
iter: 1601  14:03:04    16010.00     -15.0
iter: 1602  14:03:05    16020.00     -15.0
iter: 1603  14:03:05    16030.00     -14.7
iter: 1604  14:03:05    16040.00     -15.4
iter: 1605  14:03:06    16050.00     -15.9
iter: 1606  14:03:06    16060.00     -14.7
iter: 1607  14:03:06    16070.00     -15.0
iter: 1608  14:03:07    16080.00     -15.1
iter: 1609  14:03:07    16090.00     -14.8
iter: 1610  14:03:08    16100.00     -14.9
iter: 1611  14:03:08    16110.00     -14.8
iter: 1612  14:03:08    16120.00     -15.3
iter: 1613  14:03:09    16130.00     -14.6
iter: 1614  14:03:09    16140.00     -15.6
iter: 1615  14:03:09    16150.00     -15.3
iter: 1616  14:03:10    16160.00     -15.3
iter: 1617  14:03:10    16170.00     -14.6
iter: 1618  14:03:10    16180.00     -14.6
iter: 1619  14:03:11    16190.00     -15.8
iter: 1620  14:03:11    16200.00     -15.0
iter: 1621  14:03:12    16210.00     -14.9
iter: 1622  14:03:12    16220.00     -14.8
iter: 1623  14:03:12    16230.00     -15.0
iter: 1624  14:03:13    16240.00     -15.0
iter: 1625  14:03:13    16250.00     -15.0
iter: 1626  14:03:13    16260.00     -15.0
iter: 1627  14:03:14    16270.00     -15.0
iter: 1628  14:03:14    16280.00     -15.0
iter: 1629  14:03:14    16290.00     -14.8
iter: 1630  14:03:15    16300.00     -14.7
iter: 1631  14:03:15    16310.00     -15.8
iter: 1632  14:03:16    16320.00     -15.6
iter: 1633  14:03:16    16330.00     -15.0
iter: 1634  14:03:16    16340.00     -15.6
iter: 1635  14:03:17    16350.00     -15.0
iter: 1636  14:03:17    16360.00     -15.1
iter: 1637  14:03:17    16370.00     -15.0
iter: 1638  14:03:18    16380.00     -15.0
iter: 1639  14:03:18    16390.00     -15.7
iter: 1640  14:03:18    16400.00     -15.7
iter: 1641  14:03:19    16410.00     -15.1
iter: 1642  14:03:19    16420.00     -15.0
iter: 1643  14:03:20    16430.00     -15.4
iter: 1644  14:03:20    16440.00     -15.5
iter: 1645  14:03:20    16450.00     -15.1
iter: 1646  14:03:21    16460.00     -15.0
iter: 1647  14:03:21    16470.00     -14.9
iter: 1648  14:03:21    16480.00     -15.2
iter: 1649  14:03:22    16490.00     -15.1
iter: 1650  14:03:22    16500.00     -15.0
iter: 1651  14:03:23    16510.00     -14.5
iter: 1652  14:03:23    16520.00     -14.5
iter: 1653  14:03:23    16530.00     -14.9
iter: 1654  14:03:24    16540.00     -14.8
iter: 1655  14:03:24    16550.00     -15.2
iter: 1656  14:03:24    16560.00     -14.7
iter: 1657  14:03:25    16570.00     -14.9
iter: 1658  14:03:25    16580.00     -15.1
iter: 1659  14:03:25    16590.00     -15.5
iter: 1660  14:03:26    16600.00     -15.6
iter: 1661  14:03:26    16610.00     -15.3
iter: 1662  14:03:27    16620.00     -14.5
iter: 1663  14:03:27    16630.00     -14.6
iter: 1664  14:03:27    16640.00     -14.8
iter: 1665  14:03:28    16650.00     -14.9
iter: 1666  14:03:28    16660.00     -14.8
iter: 1667  14:03:28    16670.00     -15.4
iter: 1668  14:03:29    16680.00     -14.9
iter: 1669  14:03:29    16690.00     -14.8
iter: 1670  14:03:29    16700.00     -15.1
iter: 1671  14:03:30    16710.00     -15.2
iter: 1672  14:03:30    16720.00     -14.9
iter: 1673  14:03:31    16730.00     -15.0
iter: 1674  14:03:31    16740.00     -14.9
iter: 1675  14:03:31    16750.00     -15.2
iter: 1676  14:03:32    16760.00     -14.8
iter: 1677  14:03:32    16770.00     -15.2
iter: 1678  14:03:32    16780.00     -15.3
iter: 1679  14:03:33    16790.00     -15.3
iter: 1680  14:03:33    16800.00     -15.0
iter: 1681  14:03:33    16810.00     -15.6
iter: 1682  14:03:34    16820.00     -14.7
iter: 1683  14:03:34    16830.00     -15.9
iter: 1684  14:03:35    16840.00     -15.1
iter: 1685  14:03:35    16850.00     -15.4
iter: 1686  14:03:35    16860.00     -15.1
iter: 1687  14:03:36    16870.00     -14.8
iter: 1688  14:03:36    16880.00     -15.4
iter: 1689  14:03:36    16890.00     -15.0
iter: 1690  14:03:37    16900.00     -14.8
iter: 1691  14:03:37    16910.00     -15.5
iter: 1692  14:03:38    16920.00     -14.7
iter: 1693  14:03:38    16930.00     -15.2
iter: 1694  14:03:38    16940.00     -15.5
iter: 1695  14:03:39    16950.00     -15.6
iter: 1696  14:03:39    16960.00     -14.7
iter: 1697  14:03:39    16970.00     -15.0
iter: 1698  14:03:40    16980.00     -15.1
iter: 1699  14:03:40    16990.00     -14.9
iter: 1700  14:03:40    17000.00     -14.9
iter: 1701  14:03:41    17010.00     -14.6
iter: 1702  14:03:41    17020.00     -14.7
iter: 1703  14:03:41    17030.00     -15.6
iter: 1704  14:03:42    17040.00     -14.9
iter: 1705  14:03:42    17050.00     -15.5
iter: 1706  14:03:43    17060.00     -15.1
iter: 1707  14:03:43    17070.00     -15.2
iter: 1708  14:03:43    17080.00     -15.0
iter: 1709  14:03:44    17090.00     -15.5
iter: 1710  14:03:44    17100.00     -14.9
iter: 1711  14:03:44    17110.00     -15.3
iter: 1712  14:03:45    17120.00     -14.7
iter: 1713  14:03:45    17130.00     -14.6
iter: 1714  14:03:45    17140.00     -15.0
iter: 1715  14:03:46    17150.00     -15.1
iter: 1716  14:03:46    17160.00     -15.6
iter: 1717  14:03:47    17170.00     -15.1
iter: 1718  14:03:47    17180.00     -14.8
iter: 1719  14:03:47    17190.00     -15.1
iter: 1720  14:03:48    17200.00     -15.0
iter: 1721  14:03:48    17210.00     -15.4
iter: 1722  14:03:48    17220.00     -15.1
iter: 1723  14:03:49    17230.00     -15.1
iter: 1724  14:03:49    17240.00     -14.7
[...]
iter: 1732  14:03:52    17320.00     -14.9
iter: 1733  14:03:52    17330.00     -14.7
iter: 1734  14:03:53    17340.00     -15.1
iter: 1735  14:03:53    17350.00     -14.6
iter: 1736  14:03:53    17360.00     -14.4
iter: 1737  14:03:54    17370.00     -14.9
iter: 1738  14:03:54    17380.00     -15.6
iter: 1739  14:03:55    17390.00     -14.6
iter: 1740  14:03:55    17400.00     -14.5
iter: 1741  14:03:55    17410.00     -14.7
iter: 1742  14:03:56    17420.00     -15.0
iter: 1743  14:03:56    17430.00     -15.5
iter: 1744  14:03:56    17440.00     -14.6
iter: 1745  14:03:57    17450.00     -15.0
iter: 1746  14:03:57    17460.00     -15.1
iter: 1747  14:03:57    17470.00     -14.7
iter: 1748  14:03:58    17480.00     -15.6
iter: 1749  14:03:58    17490.00     -14.6
iter: 1750  14:03:59    17500.00     -15.3
iter: 1751  14:03:59    17510.00     -15.3
iter: 1752  14:03:59    17520.00     -14.5
iter: 1753  14:04:00    17530.00     -14.9
iter: 1754  14:04:00    17540.00     -15.1
iter: 1755  14:04:00    17550.00     -15.3
iter: 1756  14:04:01    17560.00     -15.2
iter: 1757  14:04:01    17570.00     -14.7
iter: 1758  14:04:01    17580.00     -15.1
iter: 1759  14:04:02    17590.00     -15.4
iter: 1760  14:04:02    17600.00     -14.7
iter: 1761  14:04:03    17610.00     -15.1
iter: 1762  14:04:03    17620.00     -14.6
iter: 1763  14:04:04    17630.00     -14.7
iter: 1764  14:04:04    17640.00     -15.1
iter: 1765  14:04:04    17650.00     -15.2
iter: 1766  14:04:05    17660.00     -15.0
iter: 1767  14:04:05    17670.00     -14.5
iter: 1768  14:04:06    17680.00     -15.0
iter: 1769  14:04:06    17690.00     -14.5
iter: 1770  14:04:06    17700.00     -15.7
iter: 1771  14:04:07    17710.00     -14.9
iter: 1772  14:04:07    17720.00     -15.1
iter: 1773  14:04:07    17730.00     -14.9
iter: 1774  14:04:08    17740.00     -14.9
iter: 1775  14:04:08    17750.00     -14.7
iter: 1776  14:04:09    17760.00     -15.2
iter: 1777  14:04:09    17770.00     -15.1
iter: 1778  14:04:09    17780.00     -15.4
iter: 1779  14:04:10    17790.00     -15.6
iter: 1780  14:04:10    17800.00     -15.6
iter: 1781  14:04:10    17810.00     -14.6
iter: 1782  14:04:11    17820.00     -14.8
iter: 1783  14:04:11    17830.00     -15.0
iter: 1784  14:04:11    17840.00     -14.6
iter: 1785  14:04:12    17850.00     -15.2
iter: 1786  14:04:12    17860.00     -15.0
iter: 1787  14:04:12    17870.00     -14.7
iter: 1788  14:04:13    17880.00     -14.9
iter: 1789  14:04:13    17890.00     -14.9
iter: 1790  14:04:14    17900.00     -14.4
iter: 1791  14:04:14    17910.00     -15.6
iter: 1792  14:04:14    17920.00     -14.7
iter: 1793  14:04:15    17930.00     -14.7
iter: 1794  14:04:15    17940.00     -15.1
iter: 1795  14:04:15    17950.00     -14.7
iter: 1796  14:04:16    17960.00     -15.2
iter: 1797  14:04:16    17970.00     -14.9
iter: 1798  14:04:16    17980.00     -15.0
iter: 1799  14:04:17    17990.00     -15.1
iter: 1800  14:04:17    18000.00     -15.3
iter: 1801  14:04:18    18010.00     -15.0
iter: 1802  14:04:18    18020.00     -15.0
iter: 1803  14:04:18    18030.00     -14.9
iter: 1804  14:04:19    18040.00     -15.0
iter: 1805  14:04:19    18050.00     -14.8
iter: 1806  14:04:19    18060.00     -14.9
iter: 1807  14:04:20    18070.00     -15.5
iter: 1808  14:04:20    18080.00     -15.0
iter: 1809  14:04:21    18090.00     -15.4
iter: 1810  14:04:21    18100.00     -15.1
iter: 1811  14:04:21    18110.00     -14.7
iter: 1812  14:04:22    18120.00     -15.3
iter: 1813  14:04:22    18130.00     -15.4
iter: 1814  14:04:22    18140.00     -14.6
iter: 1815  14:04:23    18150.00     -15.2
iter: 1816  14:04:23    18160.00     -15.2
iter: 1817  14:04:23    18170.00     -14.8
iter: 1818  14:04:24    18180.00     -14.7
iter: 1819  14:04:24    18190.00     -15.2
iter: 1820  14:04:25    18200.00     -15.9
iter: 1821  14:04:25    18210.00     -14.8
iter: 1822  14:04:25    18220.00     -14.9
iter: 1823  14:04:26    18230.00     -14.8
iter: 1824  14:04:26    18240.00     -15.4
iter: 1825  14:04:26    18250.00     -15.6
iter: 1826  14:04:27    18260.00     -15.1
iter: 1827  14:04:27    18270.00     -14.9
iter: 1828  14:04:27    18280.00     -15.5
iter: 1829  14:04:28    18290.00     -15.4
iter: 1830  14:04:28    18300.00     -15.0
iter: 1831  14:04:29    18310.00     -14.9
iter: 1832  14:04:29    18320.00     -14.8
iter: 1833  14:04:29    18330.00     -15.6
iter: 1834  14:04:30    18340.00     -15.8
iter: 1835  14:04:30    18350.00     -15.8
iter: 1836  14:04:30    18360.00     -14.9
iter: 1837  14:04:31    18370.00     -14.7
iter: 1838  14:04:31    18380.00     -14.5
iter: 1839  14:04:31    18390.00     -15.1
iter: 1840  14:04:32    18400.00     -15.0
iter: 1841  14:04:32    18410.00     -14.6
iter: 1842  14:04:33    18420.00     -15.1
iter: 1843  14:04:33    18430.00     -15.0
iter: 1844  14:04:33    18440.00     -15.0
iter: 1845  14:04:34    18450.00     -15.3
iter: 1846  14:04:34    18460.00     -15.0
iter: 1847  14:04:34    18470.00     -14.6
iter: 1848  14:04:35    18480.00     -14.7
iter: 1849  14:04:35    18490.00     -14.9
iter: 1850  14:04:35    18500.00     -15.1
iter: 1851  14:04:36    18510.00     -15.0
iter: 1852  14:04:36    18520.00     -15.2
iter: 1853  14:04:37    18530.00     -15.3
iter: 1854  14:04:37    18540.00     -14.6
iter: 1855  14:04:37    18550.00     -15.6
iter: 1856  14:04:38    18560.00     -15.2
iter: 1857  14:04:38    18570.00     -15.4
iter: 1858  14:04:38    18580.00     -15.8
iter: 1859  14:04:39    18590.00     -15.0
iter: 1860  14:04:39    18600.00     -15.7
iter: 1861  14:04:39    18610.00     -15.5
iter: 1862  14:04:40    18620.00     -15.2
iter: 1863  14:04:40    18630.00     -15.2
iter: 1864  14:04:40    18640.00     -16.0
iter: 1865  14:04:41    18650.00     -15.3
iter: 1866  14:04:41    18660.00     -14.7
iter: 1867  14:04:42    18670.00     -15.2
iter: 1868  14:04:42    18680.00     -14.5
iter: 1869  14:04:42    18690.00     -15.2
iter: 1870  14:04:43    18700.00     -15.0
iter: 1871  14:04:43    18710.00     -15.1
iter: 1872  14:04:43    18720.00     -15.3
iter: 1873  14:04:44    18730.00     -15.1
iter: 1874  14:04:44    18740.00     -14.9
iter: 1875  14:04:44    18750.00     -14.6
iter: 1876  14:04:45    18760.00     -14.6
iter: 1877  14:04:45    18770.00     -15.4
iter: 1878  14:04:46    18780.00     -14.9
iter: 1879  14:04:46    18790.00     -15.2
iter: 1880  14:04:46    18800.00     -14.8
iter: 1881  14:04:47    18810.00     -15.8
iter: 1882  14:04:47    18820.00     -14.7
iter: 1883  14:04:47    18830.00     -14.7
iter: 1884  14:04:48    18840.00     -15.0
iter: 1885  14:04:48    18850.00     -14.7
iter: 1886  14:04:48    18860.00     -15.2
iter: 1887  14:04:49    18870.00     -15.5
iter: 1888  14:04:49    18880.00     -14.7
iter: 1889  14:04:50    18890.00     -14.5
iter: 1890  14:04:50    18900.00     -15.1
iter: 1891  14:04:50    18910.00     -14.9
iter: 1892  14:04:51    18920.00     -15.7
iter: 1893  14:04:51    18930.00     -15.8
iter: 1894  14:04:51    18940.00     -14.9
iter: 1895  14:04:52    18950.00     -15.1
iter: 1896  14:04:52    18960.00     -14.8
iter: 1897  14:04:52    18970.00     -15.1
iter: 1898  14:04:53    18980.00     -15.1
iter: 1899  14:04:53    18990.00     -15.0
iter: 1900  14:04:54    19000.00     -15.5
iter: 1901  14:04:54    19010.00     -14.8
iter: 1902  14:04:54    19020.00     -14.9
iter: 1903  14:04:55    19030.00     -15.0
iter: 1904  14:04:55    19040.00     -15.1
iter: 1905  14:04:55    19050.00     -15.1
iter: 1906  14:04:56    19060.00     -14.4
iter: 1907  14:04:56    19070.00     -14.8
iter: 1908  14:04:56    19080.00     -14.9
iter: 1909  14:04:57    19090.00     -14.8
iter: 1910  14:04:57    19100.00     -15.2
iter: 1911  14:04:58    19110.00     -15.4
iter: 1912  14:04:58    19120.00     -15.4
iter: 1913  14:04:58    19130.00     -14.8
iter: 1914  14:04:59    19140.00     -14.8
iter: 1915  14:04:59    19150.00     -14.8
iter: 1916  14:04:59    19160.00     -15.8
iter: 1917  14:05:00    19170.00     -14.7
iter: 1918  14:05:00    19180.00     -15.6
iter: 1919  14:05:00    19190.00     -15.6
iter: 1920  14:05:01    19200.00     -15.1
iter: 1921  14:05:01    19210.00     -15.5
iter: 1922  14:05:02    19220.00     -14.8
iter: 1923  14:05:02    19230.00     -15.3
iter: 1924  14:05:02    19240.00     -15.2
iter: 1925  14:05:03    19250.00     -15.7
iter: 1926  14:05:03    19260.00     -14.9
iter: 1927  14:05:03    19270.00     -15.6
iter: 1928  14:05:04    19280.00     -15.2
iter: 1929  14:05:04    19290.00     -14.8
iter: 1930  14:05:05    19300.00     -14.9
iter: 1931  14:05:05    19310.00     -14.5
iter: 1932  14:05:05    19320.00     -15.3
iter: 1933  14:05:06    19330.00     -15.4
iter: 1934  14:05:06    19340.00     -14.8
iter: 1935  14:05:06    19350.00     -14.8
iter: 1936  14:05:07    19360.00     -14.7
iter: 1937  14:05:07    19370.00     -14.7
iter: 1938  14:05:07    19380.00     -14.9
iter: 1939  14:05:08    19390.00     -15.3
iter: 1940  14:05:08    19400.00     -14.8
iter: 1941  14:05:09    19410.00     -15.3
iter: 1942  14:05:09    19420.00     -15.9
iter: 1943  14:05:09    19430.00     -15.0
iter: 1944  14:05:10    19440.00     -15.4
iter: 1945  14:05:10    19450.00     -14.7
iter: 1946  14:05:10    19460.00     -15.5
iter: 1947  14:05:11    19470.00     -15.0
iter: 1948  14:05:11    19480.00     -15.1
iter: 1949  14:05:11    19490.00     -14.8
iter: 1950  14:05:12    19500.00     -15.5
iter: 1951  14:05:12    19510.00     -14.6
iter: 1952  14:05:13    19520.00     -15.6
iter: 1953  14:05:13    19530.00     -14.8
iter: 1954  14:05:13    19540.00     -15.1
iter: 1955  14:05:14    19550.00     -15.4
iter: 1956  14:05:14    19560.00     -15.2
iter: 1957  14:05:14    19570.00     -14.7
iter: 1958  14:05:15    19580.00     -15.3
iter: 1959  14:05:15    19590.00     -15.9
iter: 1960  14:05:15    19600.00     -14.5
iter: 1961  14:05:16    19610.00     -14.8
iter: 1962  14:05:16    19620.00     -14.8
iter: 1963  14:05:17    19630.00     -14.7
iter: 1964  14:05:17    19640.00     -14.8
iter: 1965  14:05:17    19650.00     -14.7
iter: 1966  14:05:18    19660.00     -14.7
iter: 1967  14:05:18    19670.00     -14.6
iter: 1968  14:05:18    19680.00     -14.7
iter: 1969  14:05:19    19690.00     -15.2
iter: 1970  14:05:19    19700.00     -15.1
iter: 1971  14:05:19    19710.00     -14.9
iter: 1972  14:05:20    19720.00     -15.4
iter: 1973  14:05:20    19730.00     -15.0
iter: 1974  14:05:21    19740.00     -15.2
iter: 1975  14:05:21    19750.00     -14.7
iter: 1976  14:05:21    19760.00     -14.9
iter: 1977  14:05:22    19770.00     -14.8
iter: 1978  14:05:22    19780.00     -14.6
iter: 1979  14:05:22    19790.00     -15.7
iter: 1980  14:05:23    19800.00     -14.5
iter: 1981  14:05:23    19810.00     -14.6
iter: 1982  14:05:23    19820.00     -14.5
iter: 1983  14:05:24    19830.00     -14.9
iter: 1984  14:05:24    19840.00     -15.0
iter: 1985  14:05:25    19850.00     -14.9
iter: 1986  14:05:25    19860.00     -14.9
iter: 1987  14:05:25    19870.00     -15.0
iter: 1988  14:05:26    19880.00     -14.8
iter: 1989  14:05:26    19890.00     -15.4
iter: 1990  14:05:26    19900.00     -15.3
iter: 1991  14:05:27    19910.00     -14.6
iter: 1992  14:05:27    19920.00     -14.5
iter: 1993  14:05:27    19930.00     -15.3
iter: 1994  14:05:28    19940.00     -15.3
iter: 1995  14:05:28    19950.00     -14.7
iter: 1996  14:05:29    19960.00     -15.9
iter: 1997  14:05:29    19970.00     -14.6
iter: 1998  14:05:29    19980.00     -15.7
iter: 1999  14:05:30    19990.00     -14.9
iter: 2000  14:05:30    20000.00     -15.8
Writing to /home/huma/repo/litesoph/example/Na2/Spectrum/td.gpw (mode='all')

Timing:                                incl.     excl.
-------------------------------------------------------------
Basic WFS set positions:               0.000     0.000   0.0% |
 Redistribute:                         0.000     0.000   0.0% |
Basis functions set positions:         0.006     0.006   0.0% |
Initialize TDDFT:                      0.172     0.000   0.0% |
 DipoleMomentWriter update:            0.001     0.001   0.0% |
 Initialize TDDFT Hamiltonian:         0.171     0.000   0.0% |
  Update TDDFT Hamiltonian:            0.171     0.000   0.0% |
   Density:                            0.018     0.000   0.0% |
    Atomic density matrices:           0.000     0.000   0.0% |
    Mix:                               0.003     0.003   0.0% |
    Multipole moments:                 0.000     0.000   0.0% |
    Normalize:                         0.000     0.000   0.0% |
    Pseudo density:                    0.014     0.000   0.0% |
     Calculate density matrix:         0.000     0.000   0.0% |
     Construct density:                0.014     0.014   0.0% |
     Symmetrize density:               0.000     0.000   0.0% |
   Hamiltonian:                        0.153     0.000   0.0% |
    Atomic:                            0.021     0.000   0.0% |
     XC Correction:                    0.021     0.021   0.0% |
    Calculate atomic Hamiltonians:     0.001     0.001   0.0% |
    Communicate:                       0.000     0.000   0.0% |
    Hartree integrate/restrict:        0.003     0.003   0.0% |
    Poisson:                           0.040     0.002   0.0% |
     Communicate from 1D:              0.003     0.003   0.0% |
     Communicate from 2D:              0.003     0.003   0.0% |
     Communicate to 1D:                0.003     0.003   0.0% |
     Communicate to 2D:                0.003     0.003   0.0% |
     FFT 1D:                           0.009     0.009   0.0% |
     FFT 2D:                           0.016     0.016   0.0% |
    XC 3D grid:                        0.088     0.088   0.0% |
    vbar:                              0.001     0.001   0.0% |
   Update projectors:                  0.000     0.000   0.0% |
 TDDFTLogger update:                   0.000     0.000   0.0% |
Kick:                                  0.273     0.082   0.0% |
 DenseAtomicCorrection:                0.000     0.000   0.0% |
 DipoleMomentWriter update:            0.001     0.001   0.0% |
 Distribute overlap matrix:            0.000     0.000   0.0% |
 Linear solve:                         0.001     0.001   0.0% |
 Potential matrix:                     0.019     0.019   0.0% |
 Sum over cells:                       0.000     0.000   0.0% |
 TDDFTLogger update:                   0.000     0.000   0.0% |
 Update TDDFT Hamiltonian:             0.169     0.000   0.0% |
  Density:                             0.017     0.000   0.0% |
   Atomic density matrices:            0.000     0.000   0.0% |
   Mix:                                0.003     0.003   0.0% |
   Multipole moments:                  0.000     0.000   0.0% |
   Normalize:                          0.000     0.000   0.0% |
   Pseudo density:                     0.013     0.000   0.0% |
    Calculate density matrix:          0.000     0.000   0.0% |
    Construct density:                 0.013     0.013   0.0% |
    Symmetrize density:                0.000     0.000   0.0% |
  Hamiltonian:                         0.152     0.000   0.0% |
   Atomic:                             0.022     0.000   0.0% |
    XC Correction:                     0.022     0.022   0.0% |
   Calculate atomic Hamiltonians:      0.001     0.001   0.0% |
   Communicate:                        0.000     0.000   0.0% |
   Hartree integrate/restrict:         0.003     0.003   0.0% |
   Poisson:                            0.040     0.002   0.0% |
    Communicate from 1D:               0.004     0.004   0.0% |
    Communicate from 2D:               0.004     0.004   0.0% |
    Communicate to 1D:                 0.003     0.003   0.0% |
    Communicate to 2D:                 0.003     0.003   0.0% |
    FFT 1D:                            0.009     0.009   0.0% |
    FFT 2D:                            0.015     0.015   0.0% |
   XC 3D grid:                         0.085     0.085   0.0% |
   vbar:                               0.001     0.001   0.0% |
  Update projectors:                   0.000     0.000   0.0% |
LCAO WFS Initialize:                   0.165     0.006   0.0% |
 Hamiltonian:                          0.159     0.000   0.0% |
  Atomic:                              0.021     0.000   0.0% |
   XC Correction:                      0.021     0.021   0.0% |
  Calculate atomic Hamiltonians:       0.001     0.001   0.0% |
  Communicate:                         0.000     0.000   0.0% |
  Hartree integrate/restrict:          0.003     0.003   0.0% |
  Poisson:                             0.042     0.002   0.0% |
   Communicate from 1D:                0.004     0.004   0.0% |
   Communicate from 2D:                0.003     0.003   0.0% |
   Communicate to 1D:                  0.005     0.005   0.0% |
   Communicate to 2D:                  0.004     0.004   0.0% |
   FFT 1D:                             0.009     0.009   0.0% |
   FFT 2D:                             0.016     0.016   0.0% |
  XC 3D grid:                          0.091     0.091   0.0% |
  vbar:                                0.001     0.001   0.0% |
P tci:                                 0.001     0.001   0.0% |
Propagate:                           730.150     0.142   0.0% |
 Calculate H_MM:                      75.674     0.085   0.0% |
  DenseAtomicCorrection:               0.321     0.321   0.0% |
  Distribute overlap matrix:           0.065     0.065   0.0% |
  Potential matrix:                   75.138    75.138  10.3% |---|
  Sum over cells:                      0.065     0.065   0.0% |
 DipoleMomentWriter update:            2.234     2.234   0.3% |
 Linear solve:                         0.374     0.374   0.1% |
 TDDFTLogger update:                   0.776     0.776   0.1% |
 Update TDDFT Hamiltonian:           650.951     0.046   0.0% |
  Density:                            67.313     0.042   0.0% |
   Atomic density matrices:            1.014     1.014   0.1% |
   Mix:                               13.047    13.047   1.8% ||
   Multipole moments:                  0.246     0.246   0.0% |
   Normalize:                          0.239     0.239   0.0% |
   Pseudo density:                    52.726     0.661   0.1% |
    Calculate density matrix:          0.083     0.083   0.0% |
    Construct density:                51.950    51.950   7.1% |--|
    Symmetrize density:                0.031     0.031   0.0% |
  Hamiltonian:                       583.514     0.177   0.0% |
   Atomic:                            81.114     1.223   0.2% |
    XC Correction:                    79.892    79.892  10.9% |---|
   Calculate atomic Hamiltonians:      2.177     2.177   0.3% |
   Communicate:                        0.021     0.021   0.0% |
   Hartree integrate/restrict:        10.539    10.539   1.4% ||
   Poisson:                          148.323     6.786   0.9% |
    Communicate from 1D:              12.544    12.544   1.7% ||
    Communicate from 2D:              13.099    13.099   1.8% ||
    Communicate to 1D:                13.148    13.148   1.8% ||
    Communicate to 2D:                12.300    12.300   1.7% ||
    FFT 1D:                           33.045    33.045   4.5% |-|
    FFT 2D:                           57.401    57.401   7.8% |--|
   XC 3D grid:                       337.138   337.138  46.1% |-----------------|
   vbar:                               4.026     4.026   0.6% |
  Update projectors:                   0.078     0.078   0.0% |
Redistribute:                          0.000     0.000   0.0% |
ST tci:                                0.001     0.001   0.0% |
Set symmetry:                          0.001     0.001   0.0% |
TCI: Evaluate splines:                 0.078     0.078   0.0% |
mktci:                                 0.001     0.001   0.0% |
Other:                                 0.387     0.387   0.1% |
-------------------------------------------------------------
Total:                                         731.236 100.0%

Memory usage: 190.11 MiB
Date: Mon Dec 27 14:05:30 2021
